 Entering Gaussian System, Link 0=g16
 AtFile(1): /home/malgo_lab/Basis_sets/Maug_NoHd.gbs
            -H  0
             S  3 1.00
               3.387000000000E+01 6.068000000000E-03
               5.095000000000E+00 4.530800000000E-02
               1.159000000000E+00 2.028220000000E-01
             S  1 1.00
               3.258000000000E-01 1.000000000000E+00
             S  1 1.00
               1.027000000000E-01 1.000000000000E+00
             P  1 1.00
               1.407000000000E+00 1.000000000000E+00
             P  1 1.00
               3.880000000000E-01 1.000000000000E+00
            ****
            -He 0
             S  4 1.00
               2.340000000000E+02 2.587000000000E-03
               3.516000000000E+01 1.953300000000E-02
               7.989000000000E+00 9.099800000000E-02
               2.212000000000E+00 2.720500000000E-01
             S  1 1.00
               6.669000000000E-01 1.000000000000E+00
             S  1 1.00
               2.089000000000E-01 1.000000000000E+00
             P  1 1.00
               3.044000000000E+00 1.000000000000E+00
             P  1 1.00
               7.580000000000E-01 1.000000000000E+00
             D  1 1.00
               1.965000000000E+00 1.000000000000E+00
            ****
            -Li 0
             S  9 1.00
               5.988000000000E+03 1.330000000000E-04
               8.989000000000E+02 1.025000000000E-03
               2.059000000000E+02 5.272000000000E-03
               5.924000000000E+01 2.092900000000E-02
               1.987000000000E+01 6.634000000000E-02
               7.406000000000E+00 1.657750000000E-01
               2.930000000000E+00 3.150380000000E-01
               1.189000000000E+00 3.935230000000E-01
               4.798000000000E-01 1.908700000000E-01
             S  9 1.00
               5.988000000000E+03 -2.100000000000E-05
               8.989000000000E+02 -1.610000000000E-04
               2.059000000000E+02 -8.200000000000E-04
               5.924000000000E+01 -3.326000000000E-03
               1.987000000000E+01 -1.051900000000E-02
               7.406000000000E+00 -2.809700000000E-02
               2.930000000000E+00 -5.593600000000E-02
               1.189000000000E+00 -9.923700000000E-02
               4.798000000000E-01 -1.121890000000E-01
             S  1 1.00
               7.509000000000E-02 1.000000000000E+00
             S  1 1.00
               2.832000000000E-02 1.000000000000E+00
             S  1 1.00
               7.600000000000E-03 1.000000000000E+00
             P  3 1.00
               3.266000000000E+00 8.630000000000E-03
               6.511000000000E-01 4.753800000000E-02
               1.696000000000E-01 2.097720000000E-01
             P  1 1.00
               5.578000000000E-02 1.000000000000E+00
             P  1 1.00
               2.050000000000E-02 1.000000000000E+00
             P  1 1.00
               9.100000000000E-03 1.000000000000E+00
             D  1 1.00
               1.874000000000E-01 1.000000000000E+00
             D  1 1.00
               8.010000000000E-02 1.000000000000E+00
             F  1 1.00
               1.829000000000E-01 1.000000000000E+00
            ****
            -Be 0
             S  9 1.00
               6.863000000000E+03 2.360000000000E-04
               1.030000000000E+03 1.826000000000E-03
               2.347000000000E+02 9.452000000000E-03
               6.656000000000E+01 3.795700000000E-02
               2.169000000000E+01 1.199650000000E-01
               7.734000000000E+00 2.821620000000E-01
               2.916000000000E+00 4.274040000000E-01
               1.130000000000E+00 2.662780000000E-01
               1.101000000000E-01 -7.275000000000E-03
             S  9 1.00
               6.863000000000E+03 -4.300000000000E-05
               1.030000000000E+03 -3.330000000000E-04
               2.347000000000E+02 -1.736000000000E-03
               6.656000000000E+01 -7.012000000000E-03
               2.169000000000E+01 -2.312600000000E-02
               7.734000000000E+00 -5.813800000000E-02
               2.916000000000E+00 -1.145560000000E-01
               1.130000000000E+00 -1.359080000000E-01
               1.101000000000E-01 5.774410000000E-01
             S  1 1.00
               2.577000000000E-01 1.000000000000E+00
             S  1 1.00
               4.409000000000E-02 1.000000000000E+00
             S  1 1.00
               1.503000000000E-02 1.000000000000E+00
             P  3 1.00
               7.436000000000E+00 1.073600000000E-02
               1.577000000000E+00 6.285400000000E-02
               4.352000000000E-01 2.481800000000E-01
             P  1 1.00
               1.438000000000E-01 1.000000000000E+00
             P  1 1.00
               4.994000000000E-02 1.000000000000E+00
             P  1 1.00
               7.060000000000E-03 1.000000000000E+00
             D  1 1.00
               3.480000000000E-01 1.000000000000E+00
             D  1 1.00
               1.803000000000E-01 1.000000000000E+00
             F  1 1.00
               3.250000000000E-01 1.000000000000E+00
            ****
            -B  0
             S  8 1.00
               5.473000000000E+03 5.550000000000E-04
               8.209000000000E+02 4.291000000000E-03
               1.868000000000E+02 2.194900000000E-02
               5.283000000000E+01 8.444100000000E-02
               1.708000000000E+01 2.385570000000E-01
               5.999000000000E+00 4.350720000000E-01
               2.208000000000E+00 3.419550000000E-01
               2.415000000000E-01 -9.545000000000E-03
             S  8 1.00
               5.473000000000E+03 -1.120000000000E-04
               8.209000000000E+02 -8.680000000000E-04
               1.868000000000E+02 -4.484000000000E-03
               5.283000000000E+01 -1.768300000000E-02
               1.708000000000E+01 -5.363900000000E-02
               5.999000000000E+00 -1.190050000000E-01
               2.208000000000E+00 -1.658240000000E-01
               2.415000000000E-01 5.959810000000E-01
             S  1 1.00
               5.879000000000E-01 1.000000000000E+00
             S  1 1.00
               8.610000000000E-02 1.000000000000E+00
             S  1 1.00
               2.914000000000E-02 1.000000000000E+00
             P  3 1.00
               1.205000000000E+01 1.311800000000E-02
               2.613000000000E+00 7.989600000000E-02
               7.475000000000E-01 2.772750000000E-01
             P  1 1.00
               2.385000000000E-01 1.000000000000E+00
             P  1 1.00
               7.698000000000E-02 1.000000000000E+00
             P  1 1.00
               2.096000000000E-02 1.000000000000E+00
             D  1 1.00
               6.610000000000E-01 1.000000000000E+00
             D  1 1.00
               1.990000000000E-01 1.000000000000E+00
             F  1 1.00
               4.900000000000E-01 1.000000000000E+00
            ****
            -C  0
             S  8 1.00
               8.236000000000E+03 5.310000000000E-04
               1.235000000000E+03 4.108000000000E-03
               2.808000000000E+02 2.108700000000E-02
               7.927000000000E+01 8.185300000000E-02
               2.559000000000E+01 2.348170000000E-01
               8.997000000000E+00 4.344010000000E-01
               3.319000000000E+00 3.461290000000E-01
               3.643000000000E-01 -8.983000000000E-03
             S  8 1.00
               8.236000000000E+03 -1.130000000000E-04
               1.235000000000E+03 -8.780000000000E-04
               2.808000000000E+02 -4.540000000000E-03
               7.927000000000E+01 -1.813300000000E-02
               2.559000000000E+01 -5.576000000000E-02
               8.997000000000E+00 -1.268950000000E-01
               3.319000000000E+00 -1.703520000000E-01
               3.643000000000E-01 5.986840000000E-01
             S  1 1.00
               9.059000000000E-01 1.000000000000E+00
             S  1 1.00
               1.285000000000E-01 1.000000000000E+00
             S  1 1.00
               4.402000000000E-02 1.000000000000E+00
             P  3 1.00
               1.871000000000E+01 1.403100000000E-02
               4.133000000000E+00 8.686600000000E-02
               1.200000000000E+00 2.902160000000E-01
             P  1 1.00
               3.827000000000E-01 1.000000000000E+00
             P  1 1.00
               1.209000000000E-01 1.000000000000E+00
             P  1 1.00
               3.569000000000E-02 1.000000000000E+00
             D  1 1.00
               1.097000000000E+00 1.000000000000E+00
             D  1 1.00
               3.180000000000E-01 1.000000000000E+00
             F  1 1.00
               7.610000000000E-01 1.000000000000E+00
            ****
            -N  0
             S  8 1.00
               1.142000000000E+04 5.230000000000E-04
               1.712000000000E+03 4.045000000000E-03
               3.893000000000E+02 2.077500000000E-02
               1.100000000000E+02 8.072700000000E-02
               3.557000000000E+01 2.330740000000E-01
               1.254000000000E+01 4.335010000000E-01
               4.644000000000E+00 3.474720000000E-01
               5.118000000000E-01 -8.508000000000E-03
             S  8 1.00
               1.142000000000E+04 -1.150000000000E-04
               1.712000000000E+03 -8.950000000000E-04
               3.893000000000E+02 -4.624000000000E-03
               1.100000000000E+02 -1.852800000000E-02
               3.557000000000E+01 -5.733900000000E-02
               1.254000000000E+01 -1.320760000000E-01
               4.644000000000E+00 -1.725100000000E-01
               5.118000000000E-01 5.999440000000E-01
             S  1 1.00
               1.293000000000E+00 1.000000000000E+00
             S  1 1.00
               1.787000000000E-01 1.000000000000E+00
             S  1 1.00
               5.760000000000E-02 1.000000000000E+00
             P  3 1.00
               2.663000000000E+01 1.467000000000E-02
               5.948000000000E+00 9.176400000000E-02
               1.742000000000E+00 2.986830000000E-01
             P  1 1.00
               5.550000000000E-01 1.000000000000E+00
             P  1 1.00
               1.725000000000E-01 1.000000000000E+00
             P  1 1.00
               4.910000000000E-02 1.000000000000E+00
             D  1 1.00
               1.654000000000E+00 1.000000000000E+00
             D  1 1.00
               4.690000000000E-01 1.000000000000E+00
             F  1 1.00
               1.093000000000E+00 1.000000000000E+00
            ****
            -O  0
             S  8 1.00
               1.533000000000E+04 5.080000000000E-04
               2.299000000000E+03 3.929000000000E-03
               5.224000000000E+02 2.024300000000E-02
               1.473000000000E+02 7.918100000000E-02
               4.755000000000E+01 2.306870000000E-01
               1.676000000000E+01 4.331180000000E-01
               6.207000000000E+00 3.502600000000E-01
               6.882000000000E-01 -8.154000000000E-03
             S  8 1.00
               1.533000000000E+04 -1.150000000000E-04
               2.299000000000E+03 -8.950000000000E-04
               5.224000000000E+02 -4.636000000000E-03
               1.473000000000E+02 -1.872400000000E-02
               4.755000000000E+01 -5.846300000000E-02
               1.676000000000E+01 -1.364630000000E-01
               6.207000000000E+00 -1.757400000000E-01
               6.882000000000E-01 6.034180000000E-01
             S  1 1.00
               1.752000000000E+00 1.000000000000E+00
             S  1 1.00
               2.384000000000E-01 1.000000000000E+00
             S  1 1.00
               7.376000000000E-02 1.000000000000E+00
             P  3 1.00
               3.446000000000E+01 1.592800000000E-02
               7.749000000000E+00 9.974000000000E-02
               2.280000000000E+00 3.104920000000E-01
             P  1 1.00
               7.156000000000E-01 1.000000000000E+00
             P  1 1.00
               2.140000000000E-01 1.000000000000E+00
             P  1 1.00
               5.974000000000E-02 1.000000000000E+00
             D  1 1.00
               2.314000000000E+00 1.000000000000E+00
             D  1 1.00
               6.450000000000E-01 1.000000000000E+00
             F  1 1.00
               1.428000000000E+00 1.000000000000E+00
            ****
            -F  0
             S  8 1.00
               1.950000000000E+04 5.070000000000E-04
               2.923000000000E+03 3.923000000000E-03
               6.645000000000E+02 2.020000000000E-02
               1.875000000000E+02 7.901000000000E-02
               6.062000000000E+01 2.304390000000E-01
               2.142000000000E+01 4.328720000000E-01
               7.950000000000E+00 3.499640000000E-01
               8.815000000000E-01 -7.892000000000E-03
             S  8 1.00
               1.950000000000E+04 -1.170000000000E-04
               2.923000000000E+03 -9.120000000000E-04
               6.645000000000E+02 -4.717000000000E-03
               1.875000000000E+02 -1.908600000000E-02
               6.062000000000E+01 -5.965500000000E-02
               2.142000000000E+01 -1.400100000000E-01
               7.950000000000E+00 -1.767820000000E-01
               8.815000000000E-01 6.050430000000E-01
             S  1 1.00
               2.257000000000E+00 1.000000000000E+00
             S  1 1.00
               3.041000000000E-01 1.000000000000E+00
             S  1 1.00
               9.158000000000E-02 1.000000000000E+00
             P  3 1.00
               4.388000000000E+01 1.666500000000E-02
               9.926000000000E+00 1.044720000000E-01
               2.930000000000E+00 3.172600000000E-01
             P  1 1.00
               9.132000000000E-01 1.000000000000E+00
             P  1 1.00
               2.672000000000E-01 1.000000000000E+00
             P  1 1.00
               7.361000000000E-02 1.000000000000E+00
             D  1 1.00
               3.107000000000E+00 1.000000000000E+00
             D  1 1.00
               8.550000000000E-01 1.000000000000E+00
             F  1 1.00
               1.917000000000E+00 1.000000000000E+00
            ****
            -Ne 0
             S  8 1.00
               2.435000000000E+04 5.020000000000E-04
               3.650000000000E+03 3.881000000000E-03
               8.296000000000E+02 1.999700000000E-02
               2.340000000000E+02 7.841800000000E-02
               7.561000000000E+01 2.296760000000E-01
               2.673000000000E+01 4.327220000000E-01
               9.927000000000E+00 3.506420000000E-01
               1.102000000000E+00 -7.645000000000E-03
             S  8 1.00
               2.435000000000E+04 -1.180000000000E-04
               3.650000000000E+03 -9.150000000000E-04
               8.296000000000E+02 -4.737000000000E-03
               2.340000000000E+02 -1.923300000000E-02
               7.561000000000E+01 -6.036900000000E-02
               2.673000000000E+01 -1.425080000000E-01
               9.927000000000E+00 -1.777100000000E-01
               1.102000000000E+00 6.058360000000E-01
             S  1 1.00
               2.836000000000E+00 1.000000000000E+00
             S  1 1.00
               3.782000000000E-01 1.000000000000E+00
             S  1 1.00
               1.133000000000E-01 1.000000000000E+00
             P  3 1.00
               5.470000000000E+01 1.715100000000E-02
               1.243000000000E+01 1.076560000000E-01
               3.679000000000E+00 3.216810000000E-01
             P  1 1.00
               1.143000000000E+00 1.000000000000E+00
             P  1 1.00
               3.300000000000E-01 1.000000000000E+00
             P  1 1.00
               9.175000000000E-02 1.000000000000E+00
             D  1 1.00
               4.014000000000E+00 1.000000000000E+00
             D  1 1.00
               1.096000000000E+00 1.000000000000E+00
             F  1 1.00
               2.544000000000E+00 1.000000000000E+00
            ****
            -Na 0
             S  14 1.00
               4.230000000000E+05 1.806180000000E-05
               6.334000000000E+04 1.404300000000E-04
               1.441000000000E+04 7.384380000000E-04
               4.077000000000E+03 3.111820000000E-03
               1.328000000000E+03 1.120810000000E-02
               4.786000000000E+02 3.528280000000E-02
               1.862000000000E+02 9.598970000000E-02
               7.692000000000E+01 2.137350000000E-01
               3.332000000000E+01 3.486880000000E-01
               1.500000000000E+01 3.245660000000E-01
               6.869000000000E+00 1.126330000000E-01
               2.683000000000E+00 7.067970000000E-03
               1.109000000000E+00 5.980100000000E-04
               6.015000000000E-02 -5.308700000000E-06
             S  14 1.00
               4.230000000000E+05 -4.406530000000E-06
               6.334000000000E+04 -3.434430000000E-05
               1.441000000000E+04 -1.801140000000E-04
               4.077000000000E+03 -7.639000000000E-04
               1.328000000000E+03 -2.752480000000E-03
               4.786000000000E+02 -8.860160000000E-03
               1.862000000000E+02 -2.479390000000E-02
               7.692000000000E+01 -6.059950000000E-02
               3.332000000000E+01 -1.164460000000E-01
               1.500000000000E+01 -1.624370000000E-01
               6.869000000000E+00 -4.388910000000E-02
               2.683000000000E+00 3.379170000000E-01
               1.109000000000E+00 5.613470000000E-01
               6.015000000000E-02 4.067540000000E-03
             S  14 1.00
               4.230000000000E+05 6.630190000000E-07
               6.334000000000E+04 5.157690000000E-06
               1.441000000000E+04 2.712500000000E-05
               4.077000000000E+03 1.146350000000E-04
               1.328000000000E+03 4.151180000000E-04
               4.786000000000E+02 1.329780000000E-03
               1.862000000000E+02 3.755950000000E-03
               7.692000000000E+01 9.140250000000E-03
               3.332000000000E+01 1.798590000000E-02
               1.500000000000E+01 2.514770000000E-02
               6.869000000000E+00 7.635220000000E-03
               2.683000000000E+00 -6.145890000000E-02
               1.109000000000E+00 -1.157210000000E-01
               6.015000000000E-02 6.264060000000E-01
             S  1 1.00
               4.540000000000E-01 1.000000000000E+00
             S  1 1.00
               2.382000000000E-02 1.000000000000E+00
             S  1 1.00
               6.650000000000E-03 1.000000000000E+00
             P  8 1.00
               2.433000000000E+02 2.243920000000E-03
               5.739000000000E+01 1.739970000000E-02
               1.810000000000E+01 7.741250000000E-02
               6.575000000000E+00 2.191020000000E-01
               2.521000000000E+00 3.785220000000E-01
               9.607000000000E-01 3.949020000000E-01
               3.512000000000E-01 1.604240000000E-01
               9.827000000000E-02 2.333110000000E-03
             P  8 1.00
               2.433000000000E+02 -2.224010000000E-04
               5.739000000000E+01 -1.742770000000E-03
               1.810000000000E+01 -7.754560000000E-03
               6.575000000000E+00 -2.251870000000E-02
               2.521000000000E+00 -3.843300000000E-02
               9.607000000000E-01 -4.501770000000E-02
               3.512000000000E-01 -1.921320000000E-02
               9.827000000000E-02 1.826970000000E-01
             P  1 1.00
               3.734000000000E-02 1.000000000000E+00
             P  1 1.00
               1.500000000000E-02 1.000000000000E+00
             P  1 1.00
               7.000000000000E-03 1.000000000000E+00
             D  1 1.00
               1.367000000000E-01 1.000000000000E+00
             D  1 1.00
               6.360000000000E-02 1.000000000000E+00
             F  1 1.00
               1.397000000000E-01 1.000000000000E+00
            ****
            -Mg 0
             S  13 1.00
               1.649000000000E+05 7.299290000000E-05
               2.471000000000E+04 5.666520000000E-04
               5.628000000000E+03 2.962690000000E-03
               1.596000000000E+03 1.229620000000E-02
               5.210000000000E+02 4.273240000000E-02
               1.880000000000E+02 1.230130000000E-01
               7.301000000000E+01 2.748320000000E-01
               2.990000000000E+01 4.018180000000E-01
               1.254000000000E+01 2.646970000000E-01
               4.306000000000E+00 3.326120000000E-02
               1.826000000000E+00 -4.413350000000E-03
               7.417000000000E-01 2.060240000000E-03
               7.612000000000E-02 7.081950000000E-04
             S  13 1.00
               1.649000000000E+05 -1.842480000000E-05
               2.471000000000E+04 -1.435000000000E-04
               5.628000000000E+03 -7.487100000000E-04
               1.596000000000E+03 -3.144070000000E-03
               5.210000000000E+02 -1.104810000000E-02
               1.880000000000E+02 -3.360580000000E-02
               7.301000000000E+01 -8.259460000000E-02
               2.990000000000E+01 -1.593140000000E-01
               1.254000000000E+01 -1.528880000000E-01
               4.306000000000E+00 1.908490000000E-01
               1.826000000000E+00 5.799640000000E-01
               7.417000000000E-01 3.720290000000E-01
               7.612000000000E-02 -1.193440000000E-02
             S  13 1.00
               1.649000000000E+05 3.551760000000E-06
               2.471000000000E+04 2.764200000000E-05
               5.628000000000E+03 1.444040000000E-04
               1.596000000000E+03 6.057440000000E-04
               5.210000000000E+02 2.135270000000E-03
               1.880000000000E+02 6.499340000000E-03
               7.301000000000E+01 1.614460000000E-02
               2.990000000000E+01 3.157660000000E-02
               1.254000000000E+01 3.163740000000E-02
               4.306000000000E+00 -4.391400000000E-02
               1.826000000000E+00 -1.510930000000E-01
               7.417000000000E-01 -2.176680000000E-01
               7.612000000000E-02 5.472450000000E-01
             S  1 1.00
               1.457000000000E-01 1.000000000000E+00
             S  1 1.00
               3.310000000000E-02 1.000000000000E+00
             S  1 1.00
               1.290000000000E-02 1.000000000000E+00
             P  8 1.00
               3.169000000000E+02 2.075320000000E-03
               7.486000000000E+01 1.628690000000E-02
               2.372000000000E+01 7.386970000000E-02
               8.669000000000E+00 2.142970000000E-01
               3.363000000000E+00 3.821540000000E-01
               1.310000000000E+00 3.981780000000E-01
               4.911000000000E-01 1.528780000000E-01
               2.364000000000E-01 -4.375400000000E-03
             P  8 1.00
               3.169000000000E+02 -3.297270000000E-04
               7.486000000000E+01 -2.587540000000E-03
               2.372000000000E+01 -1.191200000000E-02
               8.669000000000E+00 -3.502270000000E-02
               3.363000000000E+00 -6.399680000000E-02
               1.310000000000E+00 -7.044360000000E-02
               4.911000000000E-01 -3.758360000000E-02
               2.364000000000E-01 1.770430000000E-01
             P  1 1.00
               8.733000000000E-02 1.000000000000E+00
             P  1 1.00
               3.237000000000E-02 1.000000000000E+00
             P  1 1.00
               7.450000000000E-03 1.000000000000E+00
             D  1 1.00
               1.260000000000E-01 1.000000000000E+00
             D  1 1.00
               2.940000000000E-01 1.000000000000E+00
             F  1 1.00
               2.520000000000E-01 1.000000000000E+00
            ****
            -Al 0
             S  13 1.00
               2.055000000000E+05 6.788360000000E-05
               3.078000000000E+04 5.271490000000E-04
               7.006000000000E+03 2.762030000000E-03
               1.985000000000E+03 1.147280000000E-02
               6.491000000000E+02 3.981880000000E-02
               2.350000000000E+02 1.150400000000E-01
               9.162000000000E+01 2.608870000000E-01
               3.767000000000E+01 3.963860000000E-01
               1.591000000000E+01 2.845970000000E-01
               5.850000000000E+00 4.445830000000E-02
               2.542000000000E+00 -4.898380000000E-03
               1.057000000000E+00 2.612530000000E-03
               1.455000000000E-01 7.220680000000E-04
             S  13 1.00
               2.055000000000E+05 -1.763770000000E-05
               3.078000000000E+04 -1.371950000000E-04
               7.006000000000E+03 -7.189100000000E-04
               1.985000000000E+03 -3.011460000000E-03
               6.491000000000E+02 -1.060140000000E-02
               2.350000000000E+02 -3.213450000000E-02
               9.162000000000E+01 -8.031560000000E-02
               3.767000000000E+01 -1.567940000000E-01
               1.591000000000E+01 -1.683760000000E-01
               5.850000000000E+00 1.268790000000E-01
               2.542000000000E+00 5.614940000000E-01
               1.057000000000E+00 4.366130000000E-01
               1.455000000000E-01 -1.145630000000E-02
             S  13 1.00
               2.055000000000E+05 4.073150000000E-06
               3.078000000000E+04 3.165660000000E-05
               7.006000000000E+03 1.661160000000E-04
               1.985000000000E+03 6.949920000000E-04
               6.491000000000E+02 2.455110000000E-03
               2.350000000000E+02 7.445980000000E-03
               9.162000000000E+01 1.882530000000E-02
               3.767000000000E+01 3.727720000000E-02
               1.591000000000E+01 4.194960000000E-02
               5.850000000000E+00 -3.543750000000E-02
               2.542000000000E+00 -1.751320000000E-01
               1.057000000000E+00 -2.762030000000E-01
               1.455000000000E-01 6.528090000000E-01
             S  1 1.00
               2.931000000000E-01 1.000000000000E+00
             S  1 1.00
               5.650000000000E-02 1.000000000000E+00
             S  1 1.00
               2.210000000000E-02 1.000000000000E+00
             P  7 1.00
               4.444000000000E+02 1.627860000000E-03
               1.051000000000E+02 1.306870000000E-02
               3.347000000000E+01 6.123410000000E-02
               1.233000000000E+01 1.878700000000E-01
               4.869000000000E+00 3.604520000000E-01
               1.961000000000E+00 4.084540000000E-01
               1.888000000000E-01 9.765140000000E-03
             P  7 1.00
               4.444000000000E+02 -2.863410000000E-04
               1.051000000000E+02 -2.423080000000E-03
               3.347000000000E+01 -1.086580000000E-02
               1.233000000000E+01 -3.643070000000E-02
               4.869000000000E+00 -6.410740000000E-02
               1.961000000000E+00 -9.722390000000E-02
               1.888000000000E-01 5.034480000000E-01
             P  1 1.00
               7.834000000000E-01 1.000000000000E+00
             P  1 1.00
               5.557000000000E-02 1.000000000000E+00
             P  1 1.00
               1.460000000000E-02 1.000000000000E+00
             D  1 1.00
               1.570000000000E+00 1.000000000000E+00
             D  1 1.00
               3.330000000000E-01 1.000000000000E+00
             D  1 1.00
               1.110000000000E-01 1.000000000000E+00
             F  1 1.00
               2.440000000000E-01 1.000000000000E+00
            ****
            -Si 0
             S  13 1.00
               2.549000000000E+05 6.251010000000E-05
               3.819000000000E+04 4.855530000000E-04
               8.690000000000E+03 2.545160000000E-03
               2.462000000000E+03 1.058660000000E-02
               8.048000000000E+02 3.687870000000E-02
               2.913000000000E+02 1.074790000000E-01
               1.136000000000E+02 2.479360000000E-01
               4.675000000000E+01 3.909270000000E-01
               1.982000000000E+01 3.020260000000E-01
               7.708000000000E+00 5.592360000000E-02
               3.340000000000E+00 -4.024060000000E-03
               1.402000000000E+00 2.580300000000E-03
               2.070000000000E-01 6.079300000000E-04
             S  13 1.00
               2.549000000000E+05 -1.663700000000E-05
               3.819000000000E+04 -1.293100000000E-04
               8.690000000000E+03 -6.788280000000E-04
               2.462000000000E+03 -2.841170000000E-03
               8.048000000000E+02 -1.005510000000E-02
               2.913000000000E+02 -3.057740000000E-02
               1.136000000000E+02 -7.772560000000E-02
               4.675000000000E+01 -1.542360000000E-01
               1.982000000000E+01 -1.803680000000E-01
               7.708000000000E+00 7.982180000000E-02
               3.340000000000E+00 5.474410000000E-01
               1.402000000000E+00 4.801190000000E-01
               2.070000000000E-01 -1.069960000000E-02
             S  13 1.00
               2.549000000000E+05 4.262570000000E-06
               3.819000000000E+04 3.310620000000E-05
               8.690000000000E+03 1.740150000000E-04
               2.462000000000E+03 7.275740000000E-04
               8.048000000000E+02 2.583330000000E-03
               2.913000000000E+02 7.863540000000E-03
               1.136000000000E+02 2.021550000000E-02
               4.675000000000E+01 4.073200000000E-02
               1.982000000000E+01 4.993580000000E-02
               7.708000000000E+00 -2.493960000000E-02
               3.340000000000E+00 -1.903500000000E-01
               1.402000000000E+00 -3.183500000000E-01
               2.070000000000E-01 6.811800000000E-01
             S  1 1.00
               4.387000000000E-01 1.000000000000E+00
             S  1 1.00
               7.944000000000E-02 1.000000000000E+00
             S  1 1.00
               3.300000000000E-02 1.000000000000E+00
             P  7 1.00
               4.815000000000E+02 1.920450000000E-03
               1.139000000000E+02 1.535520000000E-02
               3.623000000000E+01 7.139910000000E-02
               1.334000000000E+01 2.130520000000E-01
               5.252000000000E+00 3.903540000000E-01
               2.120000000000E+00 3.937210000000E-01
               2.528000000000E-01 3.956300000000E-03
             P  7 1.00
               4.815000000000E+02 -4.052200000000E-04
               1.139000000000E+02 -3.358960000000E-03
               3.623000000000E+01 -1.528600000000E-02
               1.334000000000E+01 -4.892180000000E-02
               5.252000000000E+00 -8.550080000000E-02
               2.120000000000E+00 -1.121370000000E-01
               2.528000000000E-01 5.519190000000E-01
             P  1 1.00
               8.561000000000E-01 1.000000000000E+00
             P  1 1.00
               7.889000000000E-02 1.000000000000E+00
             P  1 1.00
               2.370000000000E-02 1.000000000000E+00
             D  1 1.00
               2.303000000000E+00 1.000000000000E+00
             D  1 1.00
               4.760000000000E-01 1.000000000000E+00
             D  1 1.00
               1.600000000000E-01 1.000000000000E+00
             F  1 1.00
               3.360000000000E-01 1.000000000000E+00
            ****
            -P  0
             S  13 1.00
               3.124000000000E+05 5.769600000000E-05
               4.680000000000E+04 4.482960000000E-04
               1.065000000000E+04 2.349390000000E-03
               3.018000000000E+03 9.782650000000E-03
               9.868000000000E+02 3.414670000000E-02
               3.574000000000E+02 1.002040000000E-01
               1.396000000000E+02 2.343720000000E-01
               5.763000000000E+01 3.824340000000E-01
               2.460000000000E+01 3.180880000000E-01
               1.012000000000E+01 7.077880000000E-02
               4.283000000000E+00 -1.817990000000E-03
               1.805000000000E+00 2.161800000000E-03
               2.782000000000E-01 4.322970000000E-04
             S  13 1.00
               3.124000000000E+05 -1.567090000000E-05
               4.680000000000E+04 -1.217240000000E-04
               1.065000000000E+04 -6.396720000000E-04
               3.018000000000E+03 -2.674260000000E-03
               9.868000000000E+02 -9.498310000000E-03
               3.574000000000E+02 -2.893490000000E-02
               1.396000000000E+02 -7.451210000000E-02
               5.763000000000E+01 -1.499380000000E-01
               2.460000000000E+01 -1.894670000000E-01
               1.012000000000E+01 3.632700000000E-02
               4.283000000000E+00 5.288160000000E-01
               1.805000000000E+00 5.191150000000E-01
               2.782000000000E-01 -9.256950000000E-03
             S  13 1.00
               3.124000000000E+05 4.306310000000E-06
               4.680000000000E+04 3.341940000000E-05
               1.065000000000E+04 1.758850000000E-04
               3.018000000000E+03 7.343400000000E-04
               9.868000000000E+02 2.617750000000E-03
               3.574000000000E+02 7.978520000000E-03
               1.396000000000E+02 2.079400000000E-02
               5.763000000000E+01 4.244460000000E-02
               2.460000000000E+01 5.634360000000E-02
               1.012000000000E+01 -1.273580000000E-02
               4.283000000000E+00 -1.964950000000E-01
               1.805000000000E+00 -3.535550000000E-01
               2.782000000000E-01 7.009120000000E-01
             S  1 1.00
               6.158000000000E-01 1.000000000000E+00
             S  1 1.00
               1.055000000000E-01 1.000000000000E+00
             S  1 1.00
               4.090000000000E-02 1.000000000000E+00
             P  7 1.00
               5.049000000000E+02 2.337280000000E-03
               1.194000000000E+02 1.854100000000E-02
               3.796000000000E+01 8.496930000000E-02
               1.395000000000E+01 2.446150000000E-01
               5.457000000000E+00 4.227660000000E-01
               2.177000000000E+00 3.684390000000E-01
               2.877000000000E-01 -3.790050000000E-03
             P  7 1.00
               5.049000000000E+02 -5.552360000000E-04
               1.194000000000E+02 -4.459130000000E-03
               3.796000000000E+01 -2.063500000000E-02
               1.395000000000E+01 -6.176940000000E-02
               5.457000000000E+00 -1.089240000000E-01
               2.177000000000E+00 -1.055990000000E-01
               2.877000000000E-01 5.769810000000E-01
             P  1 1.00
               8.010000000000E-01 1.000000000000E+00
             P  1 1.00
               9.714000000000E-02 1.000000000000E+00
             P  1 1.00
               3.070000000000E-02 1.000000000000E+00
             D  1 1.00
               3.120000000000E+00 1.000000000000E+00
             D  1 1.00
               6.480000000000E-01 1.000000000000E+00
             D  1 1.00
               2.180000000000E-01 1.000000000000E+00
             F  1 1.00
               4.520000000000E-01 1.000000000000E+00
            ****
            -S  0
             S  13 1.00
               3.741000000000E+05 5.421400000000E-05
               5.605000000000E+04 4.208550000000E-04
               1.276000000000E+04 2.206980000000E-03
               3.615000000000E+03 9.192580000000E-03
               1.183000000000E+03 3.211230000000E-02
               4.288000000000E+02 9.466830000000E-02
               1.678000000000E+02 2.236300000000E-01
               6.947000000000E+01 3.743930000000E-01
               2.984000000000E+01 3.291080000000E-01
               1.272000000000E+01 8.470380000000E-02
               5.244000000000E+00 4.408510000000E-04
               2.219000000000E+00 1.648270000000E-03
               3.490000000000E-01 3.013060000000E-04
             S  13 1.00
               3.741000000000E+05 -1.498370000000E-05
               5.605000000000E+04 -1.161980000000E-04
               1.276000000000E+04 -6.115830000000E-04
               3.615000000000E+03 -2.553700000000E-03
               1.183000000000E+03 -9.087080000000E-03
               4.288000000000E+02 -2.770450000000E-02
               1.678000000000E+02 -7.200200000000E-02
               6.947000000000E+01 -1.464390000000E-01
               2.984000000000E+01 -1.951500000000E-01
               1.272000000000E+01 8.191930000000E-03
               5.244000000000E+00 5.166010000000E-01
               2.219000000000E+00 5.421780000000E-01
               3.490000000000E-01 -9.180720000000E-03
             S  13 1.00
               3.741000000000E+05 4.350660000000E-06
               5.605000000000E+04 3.371400000000E-05
               1.276000000000E+04 1.776740000000E-04
               3.615000000000E+03 7.411160000000E-04
               1.183000000000E+03 2.645910000000E-03
               4.288000000000E+02 8.074870000000E-03
               1.678000000000E+02 2.122760000000E-02
               6.947000000000E+01 4.383230000000E-02
               2.984000000000E+01 6.127160000000E-02
               1.272000000000E+01 -3.615100000000E-03
               5.244000000000E+00 -2.045100000000E-01
               2.219000000000E+00 -3.818710000000E-01
               3.490000000000E-01 7.141470000000E-01
             S  1 1.00
               7.767000000000E-01 1.000000000000E+00
             S  1 1.00
               1.322000000000E-01 1.000000000000E+00
             S  1 1.00
               4.970000000000E-02 1.000000000000E+00
             P  7 1.00
               5.744000000000E+02 2.422640000000E-03
               1.358000000000E+02 1.927960000000E-02
               4.319000000000E+01 8.854010000000E-02
               1.587000000000E+01 2.546540000000E-01
               6.208000000000E+00 4.339840000000E-01
               2.483000000000E+00 3.549530000000E-01
               3.229000000000E-01 -5.029770000000E-03
             P  7 1.00
               5.744000000000E+02 -6.201020000000E-04
               1.358000000000E+02 -4.938820000000E-03
               4.319000000000E+01 -2.326470000000E-02
               1.587000000000E+01 -6.851950000000E-02
               6.208000000000E+00 -1.238960000000E-01
               2.483000000000E+00 -9.694990000000E-02
               3.229000000000E-01 5.693940000000E-01
             P  1 1.00
               8.688000000000E-01 1.000000000000E+00
             P  1 1.00
               1.098000000000E-01 1.000000000000E+00
             P  1 1.00
               3.510000000000E-02 1.000000000000E+00
             D  1 1.00
               3.756000000000E+00 1.000000000000E+00
             D  1 1.00
               8.120000000000E-01 1.000000000000E+00
             D  1 1.00
               2.730000000000E-01 1.000000000000E+00
             F  1 1.00
               5.570000000000E-01 1.000000000000E+00
            ****
            -Cl 0
             S  13 1.00
               4.561000000000E+05 4.929700000000E-05
               6.833000000000E+04 3.830290000000E-04
               1.555000000000E+04 2.008540000000E-03
               4.405000000000E+03 8.385580000000E-03
               1.439000000000E+03 2.947030000000E-02
               5.204000000000E+02 8.783250000000E-02
               2.031000000000E+02 2.114730000000E-01
               8.396000000000E+01 3.653640000000E-01
               3.620000000000E+01 3.408840000000E-01
               1.583000000000E+01 1.021330000000E-01
               6.334000000000E+00 3.116750000000E-03
               2.694000000000E+00 1.057510000000E-03
               4.313000000000E-01 1.561360000000E-04
             S  13 1.00
               4.561000000000E+05 -1.383040000000E-05
               6.833000000000E+04 -1.072790000000E-04
               1.555000000000E+04 -5.650830000000E-04
               4.405000000000E+03 -2.361350000000E-03
               1.439000000000E+03 -8.458860000000E-03
               5.204000000000E+02 -2.596380000000E-02
               2.031000000000E+02 -6.863620000000E-02
               8.396000000000E+01 -1.418740000000E-01
               3.620000000000E+01 -1.993190000000E-01
               1.583000000000E+01 -1.956620000000E-02
               6.334000000000E+00 4.997410000000E-01
               2.694000000000E+00 5.637360000000E-01
               4.313000000000E-01 -8.350910000000E-03
             S  13 1.00
               4.561000000000E+05 4.185460000000E-06
               6.833000000000E+04 3.243950000000E-05
               1.555000000000E+04 1.711050000000E-04
               4.405000000000E+03 7.141760000000E-04
               1.439000000000E+03 2.567050000000E-03
               5.204000000000E+02 7.885520000000E-03
               2.031000000000E+02 2.108670000000E-02
               8.396000000000E+01 4.422640000000E-02
               3.620000000000E+01 6.516700000000E-02
               1.583000000000E+01 6.030120000000E-03
               6.334000000000E+00 -2.064950000000E-01
               2.694000000000E+00 -4.058710000000E-01
               4.313000000000E-01 7.256610000000E-01
             S  1 1.00
               9.768000000000E-01 1.000000000000E+00
             S  1 1.00
               1.625000000000E-01 1.000000000000E+00
             S  1 1.00
               5.910000000000E-02 1.000000000000E+00
             P  7 1.00
               6.633000000000E+02 2.404480000000E-03
               1.568000000000E+02 1.921480000000E-02
               4.998000000000E+01 8.850970000000E-02
               1.842000000000E+01 2.560200000000E-01
               7.240000000000E+00 4.369270000000E-01
               2.922000000000E+00 3.503340000000E-01
               3.818000000000E-01 -4.584230000000E-03
             P  7 1.00
               6.633000000000E+02 -6.521450000000E-04
               1.568000000000E+02 -5.194450000000E-03
               4.998000000000E+01 -2.469380000000E-02
               1.842000000000E+01 -7.281670000000E-02
               7.240000000000E+00 -1.340300000000E-01
               2.922000000000E+00 -9.477420000000E-02
               3.818000000000E-01 5.646670000000E-01
             P  1 1.00
               1.022000000000E+00 1.000000000000E+00
             P  1 1.00
               1.301000000000E-01 1.000000000000E+00
             P  1 1.00
               4.190000000000E-02 1.000000000000E+00
             D  1 1.00
               4.610000000000E+00 1.000000000000E+00
             D  1 1.00
               1.011000000000E+00 1.000000000000E+00
             D  1 1.00
               3.390000000000E-01 1.000000000000E+00
             F  1 1.00
               7.060000000000E-01 1.000000000000E+00
            ****
            -Ar 0
             S  13 1.00
               5.450000000000E+05 4.558280000000E-05
               8.164000000000E+04 3.541080000000E-04
               1.858000000000E+04 1.857970000000E-03
               5.261000000000E+03 7.768510000000E-03
               1.717000000000E+03 2.742320000000E-02
               6.199000000000E+02 8.238360000000E-02
               2.416000000000E+02 2.012300000000E-01
               9.979000000000E+01 3.567810000000E-01
               4.315000000000E+01 3.495630000000E-01
               1.914000000000E+01 1.182660000000E-01
               7.488000000000E+00 5.601900000000E-03
               3.205000000000E+00 4.834730000000E-04
               5.204000000000E-01 2.920250000000E-05
             S  13 1.00
               5.450000000000E+05 -1.295510000000E-05
               8.164000000000E+04 -1.004280000000E-04
               1.858000000000E+04 -5.295830000000E-04
               5.261000000000E+03 -2.213960000000E-03
               1.717000000000E+03 -7.968450000000E-03
               6.199000000000E+02 -2.458030000000E-02
               2.416000000000E+02 -6.577980000000E-02
               9.979000000000E+01 -1.379420000000E-01
               4.315000000000E+01 -2.016300000000E-01
               1.914000000000E+01 -4.128340000000E-02
               7.488000000000E+00 4.846800000000E-01
               3.205000000000E+00 5.792240000000E-01
               5.204000000000E-01 -7.275530000000E-03
             S  13 1.00
               5.450000000000E+05 4.049900000000E-06
               8.164000000000E+04 3.136910000000E-05
               1.858000000000E+04 1.656460000000E-04
               5.261000000000E+03 6.916620000000E-04
               1.717000000000E+03 2.497900000000E-03
               6.199000000000E+02 7.710740000000E-03
               2.416000000000E+02 2.087140000000E-02
               9.979000000000E+01 4.439650000000E-02
               4.315000000000E+01 6.802240000000E-02
               1.914000000000E+01 1.413500000000E-02
               7.488000000000E+00 -2.074890000000E-01
               3.205000000000E+00 -4.250450000000E-01
               5.204000000000E-01 7.336270000000E-01
             S  1 1.00
               1.196000000000E+00 1.000000000000E+00
             S  1 1.00
               1.954000000000E-01 1.000000000000E+00
             S  1 1.00
               6.850000000000E-02 1.000000000000E+00
             P  7 1.00
               7.618000000000E+02 2.369760000000E-03
               1.802000000000E+02 1.901990000000E-02
               5.750000000000E+01 8.808070000000E-02
               2.124000000000E+01 2.563770000000E-01
               8.388000000000E+00 4.387110000000E-01
               3.416000000000E+00 3.475690000000E-01
               4.523000000000E-01 -5.238820000000E-03
             P  7 1.00
               7.618000000000E+02 -6.672110000000E-04
               1.802000000000E+02 -5.327170000000E-03
               5.750000000000E+01 -2.554940000000E-02
               2.124000000000E+01 -7.571970000000E-02
               8.388000000000E+00 -1.411330000000E-01
               3.416000000000E+00 -9.327680000000E-02
               4.523000000000E-01 5.624500000000E-01
             P  1 1.00
               1.206000000000E+00 1.000000000000E+00
             P  1 1.00
               1.545000000000E-01 1.000000000000E+00
             P  1 1.00
               4.870000000000E-02 1.000000000000E+00
             D  1 1.00
               5.551000000000E+00 1.000000000000E+00
             D  1 1.00
               1.235000000000E+00 1.000000000000E+00
             D  1 1.00
               4.120000000000E-01 1.000000000000E+00
             F  1 1.00
               8.900000000000E-01 1.000000000000E+00
            ****
            
 Initial command:
 /opt/qmsoft/g16/g16/l1.exe "/tmp/Gau-3203.inp" -scrdir="/tmp/"
 Entering Link 1 = /opt/qmsoft/g16/g16/l1.exe PID=      3204.
  
 Copyright (c) 1988,1990,1992,1993,1995,1998,2003,2009,2016,
            Gaussian, Inc.  All Rights Reserved.
  
 This is part of the Gaussian(R) 16 program.  It is based on
 the Gaussian(R) 09 system (copyright 2009, Gaussian, Inc.),
 the Gaussian(R) 03 system (copyright 2003, Gaussian, Inc.),
 the Gaussian(R) 98 system (copyright 1998, Gaussian, Inc.),
 the Gaussian(R) 94 system (copyright 1995, Gaussian, Inc.),
 the Gaussian 92(TM) system (copyright 1992, Gaussian, Inc.),
 the Gaussian 90(TM) system (copyright 1990, Gaussian, Inc.),
 the Gaussian 88(TM) system (copyright 1988, Gaussian, Inc.),
 the Gaussian 86(TM) system (copyright 1986, Carnegie Mellon
 University), and the Gaussian 82(TM) system (copyright 1983,
 Carnegie Mellon University). Gaussian is a federally registered
 trademark of Gaussian, Inc.
  
 This software contains proprietary and confidential information,
 including trade secrets, belonging to Gaussian, Inc.
  
 This software is provided under written license and may be
 used, copied, transmitted, or stored only in accord with that
 written license.
  
 The following legend is applicable only to US Government
 contracts under FAR:
  
                    RESTRICTED RIGHTS LEGEND
  
 Use, reproduction and disclosure by the US Government is
 subject to restrictions as set forth in subparagraphs (a)
 and (c) of the Commercial Computer Software - Restricted
 Rights clause in FAR 52.227-19.
  
 Gaussian, Inc.
 340 Quinnipiac St., Bldg. 40, Wallingford CT 06492
  
  
 ---------------------------------------------------------------
 Warning -- This program may not be used in any manner that
 competes with the business of Gaussian, Inc. or will provide
 assistance to any competitor of Gaussian, Inc.  The licensee
 of this program is prohibited from giving any competitor of
 Gaussian, Inc. access to this program.  By using this program,
 the user acknowledges that Gaussian, Inc. is engaged in the
 business of creating and licensing software in the field of
 computational chemistry and represents and warrants to the
 licensee that it is not a competitor of Gaussian, Inc. and that
 it will not use this program in any manner prohibited above.
 ---------------------------------------------------------------
  

 Cite this work as:
 Gaussian 16, Revision A.03,
 M. J. Frisch, G. W. Trucks, H. B. Schlegel, G. E. Scuseria, 
 M. A. Robb, J. R. Cheeseman, G. Scalmani, V. Barone, 
 G. A. Petersson, H. Nakatsuji, X. Li, M. Caricato, A. V. Marenich, 
 J. Bloino, B. G. Janesko, R. Gomperts, B. Mennucci, H. P. Hratchian, 
 J. V. Ortiz, A. F. Izmaylov, J. L. Sonnenberg, D. Williams-Young, 
 F. Ding, F. Lipparini, F. Egidi, J. Goings, B. Peng, A. Petrone, 
 T. Henderson, D. Ranasinghe, V. G. Zakrzewski, J. Gao, N. Rega, 
 G. Zheng, W. Liang, M. Hada, M. Ehara, K. Toyota, R. Fukuda, 
 J. Hasegawa, M. Ishida, T. Nakajima, Y. Honda, O. Kitao, H. Nakai, 
 T. Vreven, K. Throssell, J. A. Montgomery, Jr., J. E. Peralta, 
 F. Ogliaro, M. J. Bearpark, J. J. Heyd, E. N. Brothers, K. N. Kudin, 
 V. N. Staroverov, T. A. Keith, R. Kobayashi, J. Normand, 
 K. Raghavachari, A. P. Rendell, J. C. Burant, S. S. Iyengar, 
 J. Tomasi, M. Cossi, J. M. Millam, M. Klene, C. Adamo, R. Cammi, 
 J. W. Ochterski, R. L. Martin, K. Morokuma, O. Farkas, 
 J. B. Foresman, and D. J. Fox, Gaussian, Inc., Wallingford CT, 2016.
 
 ******************************************
 Gaussian 16:  ES64L-G16RevA.03 25-Dec-2016
                24-Jun-2018 
 ******************************************
 %mem=90GB
 %nprocshared=12
 Will use up to   12 processors via shared memory.
 %chk=MeAlaNH2L_alpha.chk
 ---------------------------------------------------------------
 #p opt=modredundant b3lyp/gen 6d empiricaldispersion=gd3bj scrf
 ---------------------------------------------------------------
 1/18=120,19=15,26=3,38=1/1,3;
 2/9=110,12=2,17=6,18=5,40=1/2;
 3/5=7,8=2,11=2,25=1,30=1,70=2201,71=1,74=-5,124=41/1,2,3;
 4//1;
 5/5=2,38=5/2;
 6/7=2,8=2,9=2,10=2,28=1/1;
 7//1,2,3,16;
 1/18=20,19=15,26=3/3(2);
 2/9=110/2;
 99//99;
 2/9=110/2;
 3/5=7,6=1,8=2,11=2,25=1,30=1,70=2205,71=1,74=-5,82=7,124=41/1,2,3;
 4/5=5,16=3,69=1/1;
 5/5=2,38=5/2;
 7//1,2,3,16;
 1/18=20,19=15,26=3/3(-5);
 2/9=110/2;
 6/7=2,8=2,9=2,10=2,19=2,28=1/1;
 99/9=1/99;
 Leave Link    1 at Sun Jun 24 18:42:54 2018, MaxMem= 12079595520 cpu:               0.7 elap:               0.1
 (Enter /opt/qmsoft/g16/g16/l101.exe)
 ----------
 b3lyp scan
 ----------
 Symbolic Z-matrix:
 Charge =  0 Multiplicity = 1
 C                     1.09208   2.63676  -0.10216 
 H                     1.50594   3.52272  -0.57909 
 H                     1.88622   2.15297   0.47321 
 H                     0.32311   2.96299   0.59671 
 C                     1.07486  -0.20709  -0.00505 
 O                     0.94863  -0.68311   1.11283 
 C                    -0.1744    0.53131  -0.61879 
 H                    -0.81349   0.80839   0.22391 
 C                    -0.99604  -0.3274   -1.57702 
 H                    -1.82106   0.25425  -1.98773 
 H                    -1.39833  -1.18783  -1.05067 
 H                    -0.39109  -0.7038   -2.39887 
 N                     0.48636   1.78628  -1.12526 
 H                     1.18592   1.51295  -1.80161 
 N                     2.24584  -0.19524  -0.68638 
 H                     3.06251  -0.59345  -0.25973 
 H                     2.26598   0.18838  -1.61524 
 
 The following ModRedundant input section has been read:
 A       5       7      13 S  20 1.0000                                        
 D      15       5       7      13 F                                           
 D       5       7      13       1 F                                           
 
 ITRead=  0  0  0  0  0  0  0  0  0  0  0  0  0  0  0  0  0
 MicOpt= -1 -1 -1 -1 -1 -1 -1 -1 -1 -1 -1 -1 -1 -1 -1 -1 -1
 NAtoms=     17 NQM=       17 NQMF=       0 NMMI=      0 NMMIF=      0
                NMic=       0 NMicF=      0.
                    Isotopes and Nuclear Properties:
 (Nuclear quadrupole moments (NQMom) in fm**2, nuclear magnetic moments (NMagM)
  in nuclear magnetons)

  Atom         1           2           3           4           5           6           7           8           9          10
 IAtWgt=          12           1           1           1          12          16          12           1          12           1
 AtmWgt=  12.0000000   1.0078250   1.0078250   1.0078250  12.0000000  15.9949146  12.0000000   1.0078250  12.0000000   1.0078250
 NucSpn=           0           1           1           1           0           0           0           1           0           1
 AtZEff=  -0.0000000  -0.0000000  -0.0000000  -0.0000000  -0.0000000  -0.0000000  -0.0000000  -0.0000000  -0.0000000  -0.0000000
 NQMom=    0.0000000   0.0000000   0.0000000   0.0000000   0.0000000   0.0000000   0.0000000   0.0000000   0.0000000   0.0000000
 NMagM=    0.0000000   2.7928460   2.7928460   2.7928460   0.0000000   0.0000000   0.0000000   2.7928460   0.0000000   2.7928460
 AtZNuc=   6.0000000   1.0000000   1.0000000   1.0000000   6.0000000   8.0000000   6.0000000   1.0000000   6.0000000   1.0000000

  Atom        11          12          13          14          15          16          17
 IAtWgt=           1           1          14           1          14           1           1
 AtmWgt=   1.0078250   1.0078250  14.0030740   1.0078250  14.0030740   1.0078250   1.0078250
 NucSpn=           1           1           2           1           2           1           1
 AtZEff=  -0.0000000  -0.0000000  -0.0000000  -0.0000000  -0.0000000  -0.0000000  -0.0000000
 NQMom=    0.0000000   0.0000000   2.0440000   0.0000000   2.0440000   0.0000000   0.0000000
 NMagM=    2.7928460   2.7928460   0.4037610   2.7928460   0.4037610   2.7928460   2.7928460
 AtZNuc=   1.0000000   1.0000000   7.0000000   1.0000000   7.0000000   1.0000000   1.0000000
 Leave Link  101 at Sun Jun 24 18:42:54 2018, MaxMem= 12079595520 cpu:               4.1 elap:               0.4
 (Enter /opt/qmsoft/g16/g16/l103.exe)

 GradGradGradGradGradGradGradGradGradGradGradGradGradGradGradGradGradGrad
 Berny optimization.
 Initialization pass.
                           ----------------------------
                           !    Initial Parameters    !
                           ! (Angstroms and Degrees)  !
 --------------------------                            --------------------------
 ! Name  Definition              Value          Derivative Info.                !
 --------------------------------------------------------------------------------
 ! R1    R(1,2)                  1.088          estimate D2E/DX2                !
 ! R2    R(1,3)                  1.0935         estimate D2E/DX2                !
 ! R3    R(1,4)                  1.0891         estimate D2E/DX2                !
 ! R4    R(1,13)                 1.4618         estimate D2E/DX2                !
 ! R5    R(5,6)                  1.2215         estimate D2E/DX2                !
 ! R6    R(5,7)                  1.5756         estimate D2E/DX2                !
 ! R7    R(5,15)                 1.3548         estimate D2E/DX2                !
 ! R8    R(7,8)                  1.0933         estimate D2E/DX2                !
 ! R9    R(7,9)                  1.5267         estimate D2E/DX2                !
 ! R10   R(7,13)                 1.506          estimate D2E/DX2                !
 ! R11   R(9,10)                 1.0898         estimate D2E/DX2                !
 ! R12   R(9,11)                 1.0859         estimate D2E/DX2                !
 ! R13   R(9,12)                 1.0877         estimate D2E/DX2                !
 ! R14   R(13,14)                1.0107         estimate D2E/DX2                !
 ! R15   R(15,16)                1.0038         estimate D2E/DX2                !
 ! R16   R(15,17)                1.0052         estimate D2E/DX2                !
 ! A1    A(2,1,3)              108.3415         estimate D2E/DX2                !
 ! A2    A(2,1,4)              107.8156         estimate D2E/DX2                !
 ! A3    A(2,1,13)             108.9399         estimate D2E/DX2                !
 ! A4    A(3,1,4)              107.9169         estimate D2E/DX2                !
 ! A5    A(3,1,13)             114.3169         estimate D2E/DX2                !
 ! A6    A(4,1,13)             109.3184         estimate D2E/DX2                !
 ! A7    A(6,5,7)              117.2039         estimate D2E/DX2                !
 ! A8    A(6,5,15)             123.5686         estimate D2E/DX2                !
 ! A9    A(7,5,15)             119.0317         estimate D2E/DX2                !
 ! A10   A(5,7,8)              106.3798         estimate D2E/DX2                !
 ! A11   A(5,7,9)              114.0546         estimate D2E/DX2                !
 ! A12   A(5,7,13)             100.0            Scan                            !
 ! A13   A(8,7,9)              108.164          estimate D2E/DX2                !
 ! A14   A(8,7,13)             107.7274         estimate D2E/DX2                !
 ! A15   A(9,7,13)             119.5886         estimate D2E/DX2                !
 ! A16   A(7,9,10)             110.1069         estimate D2E/DX2                !
 ! A17   A(7,9,11)             109.9276         estimate D2E/DX2                !
 ! A18   A(7,9,12)             111.6894         estimate D2E/DX2                !
 ! A19   A(10,9,11)            108.9726         estimate D2E/DX2                !
 ! A20   A(10,9,12)            108.7221         estimate D2E/DX2                !
 ! A21   A(11,9,12)            107.3427         estimate D2E/DX2                !
 ! A22   A(1,13,7)             115.5462         estimate D2E/DX2                !
 ! A23   A(1,13,14)            109.8089         estimate D2E/DX2                !
 ! A24   A(7,13,14)            107.6601         estimate D2E/DX2                !
 ! A25   A(5,15,16)            119.0763         estimate D2E/DX2                !
 ! A26   A(5,15,17)            119.0369         estimate D2E/DX2                !
 ! A27   A(16,15,17)           121.8631         estimate D2E/DX2                !
 ! D1    D(2,1,13,7)          -178.1339         estimate D2E/DX2                !
 ! D2    D(2,1,13,14)           59.8911         estimate D2E/DX2                !
 ! D3    D(3,1,13,7)            60.5243         estimate D2E/DX2                !
 ! D4    D(3,1,13,14)          -61.4507         estimate D2E/DX2                !
 ! D5    D(4,1,13,7)           -60.5491         estimate D2E/DX2                !
 ! D6    D(4,1,13,14)          177.4759         estimate D2E/DX2                !
 ! D7    D(6,5,7,8)             21.1294         estimate D2E/DX2                !
 ! D8    D(6,5,7,9)            -98.0161         estimate D2E/DX2                !
 ! D9    D(6,5,7,13)           133.0977         estimate D2E/DX2                !
 ! D10   D(15,5,7,8)          -153.9683         estimate D2E/DX2                !
 ! D11   D(15,5,7,9)            86.8863         estimate D2E/DX2                !
 ! D12   D(15,5,7,13)          -42.0            Frozen                          !
 ! D13   D(6,5,15,16)           -0.1989         estimate D2E/DX2                !
 ! D14   D(6,5,15,17)          178.0646         estimate D2E/DX2                !
 ! D15   D(7,5,15,16)          174.5675         estimate D2E/DX2                !
 ! D16   D(7,5,15,17)           -7.169          estimate D2E/DX2                !
 ! D17   D(5,7,9,10)          -178.1084         estimate D2E/DX2                !
 ! D18   D(5,7,9,11)            61.8262         estimate D2E/DX2                !
 ! D19   D(5,7,9,12)           -57.214          estimate D2E/DX2                !
 ! D20   D(8,7,9,10)            63.762          estimate D2E/DX2                !
 ! D21   D(8,7,9,11)           -56.3033         estimate D2E/DX2                !
 ! D22   D(8,7,9,12)          -175.3435         estimate D2E/DX2                !
 ! D23   D(13,7,9,10)          -59.9354         estimate D2E/DX2                !
 ! D24   D(13,7,9,11)          179.9993         estimate D2E/DX2                !
 ! D25   D(13,7,9,12)           60.9591         estimate D2E/DX2                !
 ! D26   D(5,7,13,1)           -63.0            Frozen                          !
 ! D27   D(5,7,13,14)           60.117          estimate D2E/DX2                !
 ! D28   D(8,7,13,1)            47.9157         estimate D2E/DX2                !
 ! D29   D(8,7,13,14)          171.0328         estimate D2E/DX2                !
 ! D30   D(9,7,13,1)           171.8243         estimate D2E/DX2                !
 ! D31   D(9,7,13,14)          -65.0586         estimate D2E/DX2                !
 --------------------------------------------------------------------------------
 Trust Radius=3.00D-01 FncErr=1.00D-07 GrdErr=1.00D-06 EigMax=2.50D+02 EigMin=1.00D-04
 Number of optimizations in scan=  21
 Number of steps in this run=     84 maximum allowed number of steps=    102.
 GradGradGradGradGradGradGradGradGradGradGradGradGradGradGradGradGradGrad

 Leave Link  103 at Sun Jun 24 18:42:54 2018, MaxMem= 12079595520 cpu:               0.1 elap:               0.0
 (Enter /opt/qmsoft/g16/g16/l202.exe)
                          Input orientation:                          
 ---------------------------------------------------------------------
 Center     Atomic      Atomic             Coordinates (Angstroms)
 Number     Number       Type             X           Y           Z
 ---------------------------------------------------------------------
      1          6           0        1.092081    2.636757   -0.102160
      2          1           0        1.505935    3.522719   -0.579094
      3          1           0        1.886222    2.152968    0.473215
      4          1           0        0.323114    2.962987    0.596713
      5          6           0        1.074859   -0.207094   -0.005054
      6          8           0        0.948634   -0.683109    1.112828
      7          6           0       -0.174402    0.531307   -0.618792
      8          1           0       -0.813495    0.808391    0.223907
      9          6           0       -0.996038   -0.327404   -1.577015
     10          1           0       -1.821062    0.254253   -1.987734
     11          1           0       -1.398327   -1.187830   -1.050668
     12          1           0       -0.391093   -0.703799   -2.398865
     13          7           0        0.486361    1.786284   -1.125264
     14          1           0        1.185924    1.512953   -1.801615
     15          7           0        2.245843   -0.195237   -0.686385
     16          1           0        3.062515   -0.593451   -0.259731
     17          1           0        2.265979    0.188377   -1.615240
 ---------------------------------------------------------------------
                    Distance matrix (angstroms):
                    1          2          3          4          5
     1  C    0.000000
     2  H    1.087966   0.000000
     3  H    1.093512   1.768669   0.000000
     4  H    1.089110   1.759230   1.764849   0.000000
     5  C    2.845560   3.798270   2.541052   3.313104   0.000000
     6  O    3.538119   4.567513   3.054752   3.735193   1.221549
     7  C    2.510738   3.431276   2.840499   2.763701   1.575616
     8  H    2.660913   3.659527   3.026304   2.464375   2.156273
     9  C    3.914293   4.698847   4.320083   4.158357   2.602721
    10  H    4.209290   4.871965   4.837907   4.314406   3.539806
    11  H    4.661467   5.553953   4.926604   4.786075   2.858637
    12  H    4.316709   4.977322   4.647164   4.788414   2.850626
    13  N    1.461829   2.086394   2.156201   2.092005   2.361092
    14  H    2.039580   2.374052   2.464728   2.932408   2.489684
    15  N    3.113307   3.792383   2.643495   3.913772   1.354827
    16  H    3.787041   4.412231   3.076311   4.570128   2.040810
    17  H    3.108378   3.573387   2.892313   4.045482   2.041534
                    6          7          8          9         10
     6  O    0.000000
     7  C    2.394687   0.000000
     8  H    2.473833   1.093324   0.000000
     9  C    3.338193   1.526651   2.136978   0.000000
    10  H    4.261848   2.159224   2.492713   1.089807   0.000000
    11  H    3.231670   2.154053   2.439564   1.085915   1.770988
    12  H    3.758628   2.177408   3.056809   1.087690   1.769662
    13  N    3.364618   1.506017   2.113330   2.620928   2.900892
    14  H    3.656907   2.052604   2.932034   2.863270   3.265108
    15  N    2.271109   2.527849   3.345960   3.364592   4.293631
    16  H    2.521993   3.445524   4.150002   4.275262   5.249183
    17  H    3.152338   2.658189   3.640060   3.302763   4.104509
                   11         12         13         14         15
    11  H    0.000000
    12  H    1.751126   0.000000
    13  N    3.521785   2.931297   0.000000
    14  H    3.812677   2.785262   1.010716   0.000000
    15  N    3.794459   3.185068   2.686041   2.298930   0.000000
    16  H    4.569243   4.063924   3.612319   3.214955   1.003773
    17  H    3.954722   2.910340   2.441397   1.719231   1.005155
                   16         17
    16  H    0.000000
    17  H    1.755884   0.000000
 Stoichiometry    C4H10N2O
 Framework group  C1[X(C4H10N2O)]
 Deg. of freedom    45
 Full point group                 C1      NOp   1
 Largest Abelian subgroup         C1      NOp   1
 Largest concise Abelian subgroup C1      NOp   1
                         Standard orientation:                         
 ---------------------------------------------------------------------
 Center     Atomic      Atomic             Coordinates (Angstroms)
 Number     Number       Type             X           Y           Z
 ---------------------------------------------------------------------
      1          6           0       -2.129986    0.016147   -0.377810
      2          1           0       -3.085566    0.169079    0.119331
      3          1           0       -1.910758   -1.055162   -0.379917
      4          1           0       -2.237443    0.338188   -1.412654
      5          6           0        0.594223   -0.750598   -0.081161
      6          8           0        1.058405   -1.375539   -1.022526
      7          6           0        0.263769    0.771380   -0.319802
      8          1           0        0.162242    0.899012   -1.400894
      9          6           0        1.346836    1.727965    0.172717
     10          1           0        1.038765    2.760080    0.006853
     11          1           0        2.273405    1.545594   -0.363400
     12          1           0        1.552754    1.591006    1.231919
     13          7           0       -1.115569    0.836868    0.281219
     14          1           0       -1.039248    0.571819    1.253572
     15          7           0        0.261535   -1.317756    1.103408
     16          1           0        0.396061   -2.304827    1.226512
     17          1           0       -0.088274   -0.733620    1.842837
 ---------------------------------------------------------------------
 Rotational constants (GHZ):           2.7929310           2.5183005           1.7986590
 Leave Link  202 at Sun Jun 24 18:42:54 2018, MaxMem= 12079595520 cpu:               0.1 elap:               0.0
 (Enter /opt/qmsoft/g16/g16/l301.exe)
 General basis read from cards:  (6D, 7F)
 Centers:       2      3      4      8     10     11     12     14     16     17
 S 3 1.00
     Exponent=  3.3870000000D+01 Coefficients=  6.0680000000D-03
     Exponent=  5.0950000000D+00 Coefficients=  4.5308000000D-02
     Exponent=  1.1590000000D+00 Coefficients=  2.0282200000D-01
 S 1 1.00
     Exponent=  3.2580000000D-01 Coefficients=  1.0000000000D+00
 S 1 1.00
     Exponent=  1.0270000000D-01 Coefficients=  1.0000000000D+00
 P 1 1.00
     Exponent=  1.4070000000D+00 Coefficients=  1.0000000000D+00
 P 1 1.00
     Exponent=  3.8800000000D-01 Coefficients=  1.0000000000D+00
 ****
 Centers:       1      5      7      9
 S 8 1.00
     Exponent=  8.2360000000D+03 Coefficients=  5.3100000000D-04
     Exponent=  1.2350000000D+03 Coefficients=  4.1080000000D-03
     Exponent=  2.8080000000D+02 Coefficients=  2.1087000000D-02
     Exponent=  7.9270000000D+01 Coefficients=  8.1853000000D-02
     Exponent=  2.5590000000D+01 Coefficients=  2.3481700000D-01
     Exponent=  8.9970000000D+00 Coefficients=  4.3440100000D-01
     Exponent=  3.3190000000D+00 Coefficients=  3.4612900000D-01
     Exponent=  3.6430000000D-01 Coefficients= -8.9830000000D-03
 S 8 1.00
     Exponent=  8.2360000000D+03 Coefficients= -1.1300000000D-04
     Exponent=  1.2350000000D+03 Coefficients= -8.7800000000D-04
     Exponent=  2.8080000000D+02 Coefficients= -4.5400000000D-03
     Exponent=  7.9270000000D+01 Coefficients= -1.8133000000D-02
     Exponent=  2.5590000000D+01 Coefficients= -5.5760000000D-02
     Exponent=  8.9970000000D+00 Coefficients= -1.2689500000D-01
     Exponent=  3.3190000000D+00 Coefficients= -1.7035200000D-01
     Exponent=  3.6430000000D-01 Coefficients=  5.9868400000D-01
 S 1 1.00
     Exponent=  9.0590000000D-01 Coefficients=  1.0000000000D+00
 S 1 1.00
     Exponent=  1.2850000000D-01 Coefficients=  1.0000000000D+00
 S 1 1.00
     Exponent=  4.4020000000D-02 Coefficients=  1.0000000000D+00
 P 3 1.00
     Exponent=  1.8710000000D+01 Coefficients=  1.4031000000D-02
     Exponent=  4.1330000000D+00 Coefficients=  8.6866000000D-02
     Exponent=  1.2000000000D+00 Coefficients=  2.9021600000D-01
 P 1 1.00
     Exponent=  3.8270000000D-01 Coefficients=  1.0000000000D+00
 P 1 1.00
     Exponent=  1.2090000000D-01 Coefficients=  1.0000000000D+00
 P 1 1.00
     Exponent=  3.5690000000D-02 Coefficients=  1.0000000000D+00
 D 1 1.00
     Exponent=  1.0970000000D+00 Coefficients=  1.0000000000D+00
 D 1 1.00
     Exponent=  3.1800000000D-01 Coefficients=  1.0000000000D+00
 F 1 1.00
     Exponent=  7.6100000000D-01 Coefficients=  1.0000000000D+00
 ****
 Centers:      13     15
 S 8 1.00
     Exponent=  1.1420000000D+04 Coefficients=  5.2300000000D-04
     Exponent=  1.7120000000D+03 Coefficients=  4.0450000000D-03
     Exponent=  3.8930000000D+02 Coefficients=  2.0775000000D-02
     Exponent=  1.1000000000D+02 Coefficients=  8.0727000000D-02
     Exponent=  3.5570000000D+01 Coefficients=  2.3307400000D-01
     Exponent=  1.2540000000D+01 Coefficients=  4.3350100000D-01
     Exponent=  4.6440000000D+00 Coefficients=  3.4747200000D-01
     Exponent=  5.1180000000D-01 Coefficients= -8.5080000000D-03
 S 8 1.00
     Exponent=  1.1420000000D+04 Coefficients= -1.1500000000D-04
     Exponent=  1.7120000000D+03 Coefficients= -8.9500000000D-04
     Exponent=  3.8930000000D+02 Coefficients= -4.6240000000D-03
     Exponent=  1.1000000000D+02 Coefficients= -1.8528000000D-02
     Exponent=  3.5570000000D+01 Coefficients= -5.7339000000D-02
     Exponent=  1.2540000000D+01 Coefficients= -1.3207600000D-01
     Exponent=  4.6440000000D+00 Coefficients= -1.7251000000D-01
     Exponent=  5.1180000000D-01 Coefficients=  5.9994400000D-01
 S 1 1.00
     Exponent=  1.2930000000D+00 Coefficients=  1.0000000000D+00
 S 1 1.00
     Exponent=  1.7870000000D-01 Coefficients=  1.0000000000D+00
 S 1 1.00
     Exponent=  5.7600000000D-02 Coefficients=  1.0000000000D+00
 P 3 1.00
     Exponent=  2.6630000000D+01 Coefficients=  1.4670000000D-02
     Exponent=  5.9480000000D+00 Coefficients=  9.1764000000D-02
     Exponent=  1.7420000000D+00 Coefficients=  2.9868300000D-01
 P 1 1.00
     Exponent=  5.5500000000D-01 Coefficients=  1.0000000000D+00
 P 1 1.00
     Exponent=  1.7250000000D-01 Coefficients=  1.0000000000D+00
 P 1 1.00
     Exponent=  4.9100000000D-02 Coefficients=  1.0000000000D+00
 D 1 1.00
     Exponent=  1.6540000000D+00 Coefficients=  1.0000000000D+00
 D 1 1.00
     Exponent=  4.6900000000D-01 Coefficients=  1.0000000000D+00
 F 1 1.00
     Exponent=  1.0930000000D+00 Coefficients=  1.0000000000D+00
 ****
 Centers:       6
 S 8 1.00
     Exponent=  1.5330000000D+04 Coefficients=  5.0800000000D-04
     Exponent=  2.2990000000D+03 Coefficients=  3.9290000000D-03
     Exponent=  5.2240000000D+02 Coefficients=  2.0243000000D-02
     Exponent=  1.4730000000D+02 Coefficients=  7.9181000000D-02
     Exponent=  4.7550000000D+01 Coefficients=  2.3068700000D-01
     Exponent=  1.6760000000D+01 Coefficients=  4.3311800000D-01
     Exponent=  6.2070000000D+00 Coefficients=  3.5026000000D-01
     Exponent=  6.8820000000D-01 Coefficients= -8.1540000000D-03
 S 8 1.00
     Exponent=  1.5330000000D+04 Coefficients= -1.1500000000D-04
     Exponent=  2.2990000000D+03 Coefficients= -8.9500000000D-04
     Exponent=  5.2240000000D+02 Coefficients= -4.6360000000D-03
     Exponent=  1.4730000000D+02 Coefficients= -1.8724000000D-02
     Exponent=  4.7550000000D+01 Coefficients= -5.8463000000D-02
     Exponent=  1.6760000000D+01 Coefficients= -1.3646300000D-01
     Exponent=  6.2070000000D+00 Coefficients= -1.7574000000D-01
     Exponent=  6.8820000000D-01 Coefficients=  6.0341800000D-01
 S 1 1.00
     Exponent=  1.7520000000D+00 Coefficients=  1.0000000000D+00
 S 1 1.00
     Exponent=  2.3840000000D-01 Coefficients=  1.0000000000D+00
 S 1 1.00
     Exponent=  7.3760000000D-02 Coefficients=  1.0000000000D+00
 P 3 1.00
     Exponent=  3.4460000000D+01 Coefficients=  1.5928000000D-02
     Exponent=  7.7490000000D+00 Coefficients=  9.9740000000D-02
     Exponent=  2.2800000000D+00 Coefficients=  3.1049200000D-01
 P 1 1.00
     Exponent=  7.1560000000D-01 Coefficients=  1.0000000000D+00
 P 1 1.00
     Exponent=  2.1400000000D-01 Coefficients=  1.0000000000D+00
 P 1 1.00
     Exponent=  5.9740000000D-02 Coefficients=  1.0000000000D+00
 D 1 1.00
     Exponent=  2.3140000000D+00 Coefficients=  1.0000000000D+00
 D 1 1.00
     Exponent=  6.4500000000D-01 Coefficients=  1.0000000000D+00
 F 1 1.00
     Exponent=  1.4280000000D+00 Coefficients=  1.0000000000D+00
 ****
 Ernie: Thresh=  0.10000D-02 Tol=  0.10000D-05 Strict=F.
 Ernie:  21 primitive shells out of 266 were deleted.
 There are   363 symmetry adapted cartesian basis functions of A   symmetry.
 There are   342 symmetry adapted basis functions of A   symmetry.
   342 basis functions,   502 primitive gaussians,   363 cartesian basis functions
    28 alpha electrons       28 beta electrons
       nuclear repulsion energy       326.3864074910 Hartrees.
 IExCor=  402 DFT=T Ex+Corr=B3LYP ExCW=0 ScaHFX=  0.200000
 ScaDFX=  0.800000  0.720000  1.000000  0.810000 ScalE2=  1.000000  1.000000
 IRadAn=      5 IRanWt=     -1 IRanGd=            0 ICorTp=0 IEmpDi=141
 NAtoms=   17 NActive=   17 NUniq=   17 SFac= 1.00D+00 NAtFMM=   60 NAOKFM=F Big=F
 Integral buffers will be    131072 words long.
 Raffenetti 2 integral format.
 Two-electron integral symmetry is turned on.
 R6Disp:  Grimme-D3(BJ) Dispersion energy=       -0.0241717689 Hartrees.
 Nuclear repulsion after empirical dispersion term =      326.3622357221 Hartrees.
 ------------------------------------------------------------------------------
 Polarizable Continuum Model (PCM)
 =================================
 Model                : PCM.
 Atomic radii         : UFF (Universal Force Field).
 Polarization charges : Total charges.
 Charge compensation  : None.
 Solution method      : On-the-fly selection.
 Cavity type          : Scaled VdW (van der Waals Surface) (Alpha=1.100).
 Cavity algorithm     : GePol (No added spheres)
                        Default sphere list used, NSphG=   17.
                        Lebedev-Laikov grids with approx.  5.0 points / Ang**2.
                        Smoothing algorithm: York/Karplus (Gamma=1.0000).
                        Polarization charges: spherical gaussians, with
                                              point-specific exponents (IZeta= 3).
                        Self-potential: point-specific (ISelfS= 7).
                        Self-field    : sphere-specific E.n sum rule (ISelfD= 2).
 1st derivatives      : Analytical E(r).r(x)/FMM algorithm (CHGder, D1EAlg=3).
                        Cavity 1st derivative terms included.
 Solvent              : Water, Eps=  78.355300 Eps(inf)=   1.777849
 ------------------------------------------------------------------------------
 Spheres list:
 ISph  on   Nord     Re0    Alpha      Xe            Ye            Ze
    1   C      1    1.9255  1.100     -2.129986      0.016147     -0.377810
    2   H      2    1.4430  1.100     -3.085566      0.169079      0.119331
    3   H      3    1.4430  1.100     -1.910758     -1.055162     -0.379917
    4   H      4    1.4430  1.100     -2.237443      0.338188     -1.412654
    5   C      5    1.9255  1.100      0.594223     -0.750598     -0.081161
    6   O      6    1.7500  1.100      1.058405     -1.375539     -1.022526
    7   C      7    1.9255  1.100      0.263769      0.771380     -0.319802
    8   H      8    1.4430  1.100      0.162242      0.899012     -1.400894
    9   C      9    1.9255  1.100      1.346836      1.727965      0.172717
   10   H     10    1.4430  1.100      1.038765      2.760080      0.006853
   11   H     11    1.4430  1.100      2.273405      1.545594     -0.363400
   12   H     12    1.4430  1.100      1.552754      1.591006      1.231919
   13   N     13    1.8300  1.100     -1.115569      0.836868      0.281219
   14   H     14    1.4430  1.100     -1.039248      0.571819      1.253572
   15   N     15    1.8300  1.100      0.261535     -1.317756      1.103408
   16   H     16    1.4430  1.100      0.396061     -2.304827      1.226512
   17   H     17    1.4430  1.100     -0.088274     -0.733620      1.842837
 ------------------------------------------------------------------------------
 GePol: Number of generator spheres                  =      17
 GePol: Total number of spheres                      =      17
 GePol: Number of exposed spheres                    =      17 (100.00%)
 GePol: Number of points                             =    1310
 GePol: Average weight of points                     =       0.13
 GePol: Minimum weight of points                     =   0.19D-10
 GePol: Maximum weight of points                     =    0.20577
 GePol: Number of points with low weight             =      86
 GePol: Fraction of low-weight points (<1% of avg)   =       6.56%
 GePol: Cavity surface area                          =    175.606 Ang**2
 GePol: Cavity volume                                =    167.750 Ang**3
 Leave Link  301 at Sun Jun 24 18:42:55 2018, MaxMem= 12079595520 cpu:               3.2 elap:               0.3
 (Enter /opt/qmsoft/g16/g16/l302.exe)
 NPDir=0 NMtPBC=     1 NCelOv=     1 NCel=       1 NClECP=     1 NCelD=      1
         NCelK=      1 NCelE2=     1 NClLst=     1 CellRange=     0.0.
 One-electron integrals computed using PRISM.
 One-electron integral symmetry used in STVInt
 NBasis=   342 RedAO= T EigKep=  4.60D-05  NBF=   342
 NBsUse=   342 1.00D-06 EigRej= -1.00D+00 NBFU=   342
 Precomputing XC quadrature grid using
 IXCGrd= 4 IRadAn=           5 IRanWt=          -1 IRanGd=           0 AccXCQ= 0.00D+00.
 Generated NRdTot=       0 NPtTot=           0 NUsed=           0 NTot=          32
 NSgBfM=   363   363   363   363   363 MxSgAt=    17 MxSgA2=    17.
 Leave Link  302 at Sun Jun 24 18:42:55 2018, MaxMem= 12079595520 cpu:               2.9 elap:               0.3
 (Enter /opt/qmsoft/g16/g16/l303.exe)
 DipDrv:  MaxL=1.
 Leave Link  303 at Sun Jun 24 18:42:55 2018, MaxMem= 12079595520 cpu:               0.4 elap:               0.1
 (Enter /opt/qmsoft/g16/g16/l401.exe)
 ExpMin= 3.57D-02 ExpMax= 1.53D+04 ExpMxC= 5.22D+02 IAcc=3 IRadAn=         5 AccDes= 0.00D+00
 Harris functional with IExCor=  402 and IRadAn=       5 diagonalized for initial guess.
 HarFok:  IExCor=  402 AccDes= 0.00D+00 IRadAn=         5 IDoV= 1 UseB2=F ITyADJ=14
 ICtDFT=  3500011 ScaDFX=  1.000000  1.000000  1.000000  1.000000
 FoFCou: FMM=F IPFlag=           0 FMFlag=      100000 FMFlg1=           0
[...]
     8  H    2.630954   3.618886   3.031006   2.433260   2.087462
     9  C    3.778754   4.523223   4.225424   4.061673   2.477837
    10  H    4.007157   4.615918   4.685337   4.150223   3.426441
    11  H    4.606207   5.454292   4.926254   4.771813   2.632914
    12  H    4.120345   4.723163   4.488833   4.642242   2.809190
    13  N    1.458650   2.089343   2.154401   2.087594   2.586841
    14  H    2.062159   2.353756   2.545626   2.941088   2.906110
    15  N    3.521901   4.306125   3.064961   4.197675   1.346856
    16  H    4.340445   5.108472   3.704115   4.985453   2.042674
    17  H    3.299219   3.876706   2.950577   4.168193   2.062576
                    6          7          8          9         10
     6  O    0.000000
     7  C    2.410687   0.000000
     8  H    2.461226   1.091404   0.000000
     9  C    3.206890   1.533918   2.143936   0.000000
    10  H    4.103353   2.158434   2.454343   1.088202   0.000000
    11  H    2.975115   2.176225   2.504668   1.088703   1.770798
    12  H    3.722959   2.173264   3.056759   1.090911   1.767760
    13  N    3.622828   1.448180   2.051906   2.438412   2.673752
    14  H    4.087472   2.059615   2.923783   2.660142   2.977362
    15  N    2.260387   2.456505   3.279686   3.162918   4.163466
    16  H    2.514262   3.388947   4.104519   4.042379   5.083588
    17  H    3.164730   2.623030   3.600788   3.233482   4.123344
                   11         12         13         14         15
    11  H    0.000000
    12  H    1.765347   0.000000
    13  N    3.388327   2.709662   0.000000
    14  H    3.668885   2.504349   1.012060   0.000000
    15  N    3.445909   3.014228   2.997766   2.876026   0.000000
    16  H    4.152082   3.860019   3.975278   3.836679   1.006545
    17  H    3.770448   2.847952   2.701270   2.267434   1.004796
                   16         17
    16  H    0.000000
    17  H    1.723677   0.000000
 Stoichiometry    C4H10N2O
 Framework group  C1[X(C4H10N2O)]
 Deg. of freedom    45
 Full point group                 C1      NOp   1
 RotChk:  IX=0 Diff= 1.42D-15
 Largest Abelian subgroup         C1      NOp   1
 Largest concise Abelian subgroup C1      NOp   1
                         Standard orientation:                         
 ---------------------------------------------------------------------
 Center     Atomic      Atomic             Coordinates (Angstroms)
 Number     Number       Type             X           Y           Z
 ---------------------------------------------------------------------
      1          6           0       -2.112023   -0.939298   -0.316608
      2          1           0       -3.082763   -1.091971    0.151191
      3          1           0       -1.518526   -1.852276   -0.178210
      4          1           0       -2.269728   -0.802508   -1.386889
      5          6           0        0.987149   -0.374534   -0.127984
      6          8           0        1.800756   -0.557477   -1.031397
      7          6           0       -0.195559    0.590612   -0.318636
      8          1           0       -0.314227    0.645433   -1.402184
      9          6           0        0.247196    1.968999    0.188238
     10          1           0       -0.488477    2.717742   -0.098736
     11          1           0        1.213506    2.246670   -0.229396
     12          1           0        0.333619    1.969407    1.275719
     13          7           0       -1.493994    0.262494    0.232388
     14          1           0       -1.495005    0.258583    1.244440
     15          7           0        1.116928   -0.935310    1.089680
     16          1           0        1.879011   -1.567749    1.269634
     17          1           0        0.415420   -0.828473    1.801079
 ---------------------------------------------------------------------
 Rotational constants (GHZ):           3.2505339           2.0910885           1.6933156
 Leave Link  202 at Sun Jun 24 19:29:00 2018, MaxMem= 12079595520 cpu:               0.1 elap:               0.0
 (Enter /opt/qmsoft/g16/g16/l601.exe)
 Copying SCF densities to generalized density rwf, IOpCl= 0 IROHF=0.

 **********************************************************************

            Population analysis using the SCF density.

 **********************************************************************

 Orbital symmetries:
       Occupied  (A) (A) (A) (A) (A) (A) (A) (A) (A) (A) (A) (A)
                 (A) (A) (A) (A) (A) (A) (A) (A) (A) (A) (A) (A)
                 (A) (A) (A) (A)
       Virtual   (A) (A) (A) (A) (A) (A) (A) (A) (A) (A) (A) (A)
                 (A) (A) (A) (A) (A) (A) (A) (A) (A) (A) (A) (A)
                 (A) (A) (A) (A) (A) (A) (A) (A) (A) (A) (A) (A)
                 (A) (A) (A) (A) (A) (A) (A) (A) (A) (A) (A) (A)
                 (A) (A) (A) (A) (A) (A) (A) (A) (A) (A) (A) (A)
                 (A) (A) (A) (A) (A) (A) (A) (A) (A) (A) (A) (A)
                 (A) (A) (A) (A) (A) (A) (A) (A) (A) (A) (A) (A)
                 (A) (A) (A) (A) (A) (A) (A) (A) (A) (A) (A) (A)
                 (A) (A) (A) (A) (A) (A) (A) (A) (A) (A) (A) (A)
                 (A) (A) (A) (A) (A) (A) (A) (A) (A) (A) (A) (A)
                 (A) (A) (A) (A) (A) (A) (A) (A) (A) (A) (A) (A)
                 (A) (A) (A) (A) (A) (A) (A) (A) (A) (A) (A) (A)
                 (A) (A) (A) (A) (A) (A) (A) (A) (A) (A) (A) (A)
                 (A) (A) (A) (A) (A) (A) (A) (A) (A) (A) (A) (A)
                 (A) (A) (A) (A) (A) (A) (A) (A) (A) (A) (A) (A)
                 (A) (A) (A) (A) (A) (A) (A) (A) (A) (A) (A) (A)
                 (A) (A) (A) (A) (A) (A) (A) (A) (A) (A) (A) (A)
                 (A) (A) (A) (A) (A) (A) (A) (A) (A) (A) (A) (A)
                 (A) (A) (A) (A) (A) (A) (A) (A) (A) (A) (A) (A)
                 (A) (A) (A) (A) (A) (A) (A) (A) (A) (A) (A) (A)
                 (A) (A) (A) (A) (A) (A) (A) (A) (A) (A) (A) (A)
                 (A) (A) (A) (A) (A) (A) (A) (A) (A) (A) (A) (A)
                 (A) (A) (A) (A) (A) (A) (A) (A) (A) (A) (A) (A)
                 (A) (A) (A) (A) (A) (A) (A) (A) (A) (A) (A) (A)
                 (A) (A) (A) (A) (A) (A) (A) (A) (A) (A) (A) (A)
                 (A) (A) (A) (A) (A) (A) (A) (A) (A) (A) (A) (A)
                 (A) (A)
 The electronic state is 1-A.
 Alpha  occ. eigenvalues --  -19.10809 -14.34899 -14.31876 -10.28433 -10.21755
 Alpha  occ. eigenvalues --  -10.19385 -10.17202  -1.04724  -0.92797  -0.90718
 Alpha  occ. eigenvalues --   -0.76829  -0.66923  -0.65251  -0.59623  -0.55619
 Alpha  occ. eigenvalues --   -0.50387  -0.47609  -0.45273  -0.44220  -0.43514
 Alpha  occ. eigenvalues --   -0.41033  -0.39163  -0.37858  -0.36296  -0.35769
 Alpha  occ. eigenvalues --   -0.28846  -0.28671  -0.23334
 Alpha virt. eigenvalues --   -0.00599   0.00164   0.01038   0.01538   0.01610
 Alpha virt. eigenvalues --    0.03621   0.04406   0.05222   0.05371   0.05953
 Alpha virt. eigenvalues --    0.07603   0.08071   0.08617   0.08859   0.09849
 Alpha virt. eigenvalues --    0.09877   0.11303   0.11892   0.12729   0.14039
 Alpha virt. eigenvalues --    0.14161   0.14438   0.15551   0.16774   0.16922
 Alpha virt. eigenvalues --    0.17887   0.18397   0.18654   0.19522   0.19980
 Alpha virt. eigenvalues --    0.20969   0.21610   0.22087   0.23164   0.23325
 Alpha virt. eigenvalues --    0.24816   0.25126   0.26826   0.28574   0.28791
 Alpha virt. eigenvalues --    0.29920   0.30041   0.32454   0.35587   0.36737
 Alpha virt. eigenvalues --    0.37089   0.39789   0.40060   0.41045   0.42136
 Alpha virt. eigenvalues --    0.43531   0.44903   0.46731   0.47229   0.48900
 Alpha virt. eigenvalues --    0.49379   0.50931   0.51675   0.52721   0.53346
 Alpha virt. eigenvalues --    0.55168   0.55773   0.56968   0.57798   0.59318
 Alpha virt. eigenvalues --    0.59981   0.61137   0.62760   0.63561   0.63773
 Alpha virt. eigenvalues --    0.64667   0.66187   0.66795   0.68080   0.70758
 Alpha virt. eigenvalues --    0.72577   0.73729   0.76386   0.77822   0.79242
 Alpha virt. eigenvalues --    0.81870   0.83638   0.85555   0.87296   0.87501
 Alpha virt. eigenvalues --    0.90470   0.90859   0.92319   0.93589   0.96171
 Alpha virt. eigenvalues --    0.97883   0.99605   0.99961   1.02460   1.03208
 Alpha virt. eigenvalues --    1.05757   1.07257   1.07764   1.08731   1.10275
 Alpha virt. eigenvalues --    1.11368   1.14079   1.14238   1.16781   1.17692
 Alpha virt. eigenvalues --    1.19070   1.21054   1.22551   1.24280   1.26170
 Alpha virt. eigenvalues --    1.27079   1.28270   1.30179   1.31944   1.32629
 Alpha virt. eigenvalues --    1.34718   1.36850   1.37314   1.40315   1.40508
 Alpha virt. eigenvalues --    1.41621   1.42574   1.43749   1.44533   1.47190
 Alpha virt. eigenvalues --    1.48888   1.49254   1.50452   1.52192   1.52984
 Alpha virt. eigenvalues --    1.56001   1.58995   1.62737   1.64819   1.67616
 Alpha virt. eigenvalues --    1.68998   1.74488   1.76034   1.77787   1.79386
 Alpha virt. eigenvalues --    1.84930   1.85792   1.86951   1.92662   1.94957
 Alpha virt. eigenvalues --    1.98694   2.01986   2.05732   2.06153   2.12577
 Alpha virt. eigenvalues --    2.25763   2.28144   2.30111   2.34765   2.37437
 Alpha virt. eigenvalues --    2.39777   2.42870   2.43271   2.48653   2.50330
 Alpha virt. eigenvalues --    2.52515   2.56921   2.59303   2.62101   2.65133
 Alpha virt. eigenvalues --    2.72346   2.74191   2.75771   2.77607   2.81787
 Alpha virt. eigenvalues --    2.83828   2.84781   2.84841   2.86223   2.87122
 Alpha virt. eigenvalues --    2.88381   2.90246   2.92142   2.94752   2.95899
 Alpha virt. eigenvalues --    2.97572   2.98657   3.02357   3.03261   3.04784
 Alpha virt. eigenvalues --    3.06323   3.07956   3.09785   3.11735   3.12990
 Alpha virt. eigenvalues --    3.15578   3.18153   3.18680   3.22874   3.24301
 Alpha virt. eigenvalues --    3.26070   3.26834   3.28572   3.29228   3.30916
 Alpha virt. eigenvalues --    3.35494   3.36723   3.39219   3.41329   3.42970
 Alpha virt. eigenvalues --    3.43819   3.46535   3.49328   3.51595   3.54943
 Alpha virt. eigenvalues --    3.58984   3.60082   3.61347   3.63693   3.65898
 Alpha virt. eigenvalues --    3.67357   3.68827   3.70666   3.73789   3.79298
 Alpha virt. eigenvalues --    3.81327   3.82819   3.84113   3.85397   3.87110
 Alpha virt. eigenvalues --    3.93157   3.94945   3.96833   3.98457   3.99712
 Alpha virt. eigenvalues --    4.01560   4.01942   4.04312   4.05777   4.09753
 Alpha virt. eigenvalues --    4.10563   4.12052   4.13377   4.13990   4.15187
 Alpha virt. eigenvalues --    4.20479   4.22632   4.24989   4.28261   4.29414
 Alpha virt. eigenvalues --    4.31111   4.32363   4.34196   4.39086   4.42802
 Alpha virt. eigenvalues --    4.43485   4.48417   4.50952   4.56158   4.59597
 Alpha virt. eigenvalues --    4.62349   4.65200   4.68620   4.69809   4.73876
 Alpha virt. eigenvalues --    4.80468   4.82735   4.89188   4.97418   4.99414
 Alpha virt. eigenvalues --    5.05512   5.08438   5.09879   5.15841   5.20850
 Alpha virt. eigenvalues --    5.22557   5.25010   5.29710   5.29874   5.37149
 Alpha virt. eigenvalues --    5.39047   5.41390   5.41754   5.44433   5.45794
 Alpha virt. eigenvalues --    5.51954   5.54454   5.59809   5.63229   5.65864
 Alpha virt. eigenvalues --    5.70208   5.71877   5.80416   5.86265   6.14206
 Alpha virt. eigenvalues --    6.16685   6.21355   6.25572   6.40069   6.48780
 Alpha virt. eigenvalues --    6.67689   6.77432   6.87303   7.07672   7.14950
 Alpha virt. eigenvalues --    7.73776   7.84477   7.94041   8.07303  10.26568
 Alpha virt. eigenvalues --   10.43418  11.68853  12.33069  12.63310  13.45894
 Alpha virt. eigenvalues --   14.00734  15.33925  16.48948  16.91678
          Condensed to atoms (all electrons):
               1          2          3          4          5          6
     1  C    5.116468   0.394416   0.406225   0.414037   0.002586   0.005047
     2  H    0.394416   0.495413  -0.028084  -0.016674   0.002228  -0.000346
     3  H    0.406225  -0.028084   0.553228  -0.041298   0.001159   0.001941
     4  H    0.414037  -0.016674  -0.041298   0.507964   0.001162  -0.000166
     5  C    0.002586   0.002228   0.001159   0.001162   4.895287   0.376292
     6  O    0.005047  -0.000346   0.001941  -0.000166   0.376292   8.385298
     7  C   -0.054316   0.025350  -0.025584  -0.002657   0.225675  -0.041864
     8  H    0.002159  -0.000070  -0.002758   0.007086  -0.070106  -0.004297
     9  C    0.000678  -0.002408   0.002019   0.000234  -0.064327  -0.000247
    10  H   -0.000591  -0.000024  -0.000009   0.000036   0.020791  -0.001813
    11  H    0.001510   0.000014   0.000058  -0.000036   0.007510   0.003046
    12  H   -0.000799   0.000010  -0.000039   0.000034  -0.028784   0.000391
    13  N    0.202738  -0.053660  -0.029651  -0.058791  -0.006302  -0.000044
    14  H   -0.019757  -0.004200  -0.007689   0.006758  -0.009291  -0.000843
    15  N   -0.010015  -0.001466   0.006237  -0.000187   0.280781  -0.142995
    16  H   -0.000009  -0.000005   0.000123  -0.000004  -0.025065   0.008131
    17  H   -0.001778   0.000126  -0.002016   0.000153  -0.013181   0.003395
               7          8          9         10         11         12
     1  C   -0.054316   0.002159   0.000678  -0.000591   0.001510  -0.000799
     2  H    0.025350  -0.000070  -0.002408  -0.000024   0.000014   0.000010
     3  H   -0.025584  -0.002758   0.002019  -0.000009   0.000058  -0.000039
     4  H   -0.002657   0.007086   0.000234   0.000036  -0.000036   0.000034
     5  C    0.225675  -0.070106  -0.064327   0.020791   0.007510  -0.028784
     6  O   -0.041864  -0.004297  -0.000247  -0.001813   0.003046   0.000391
     7  C    5.377232   0.472456   0.324368  -0.052648  -0.066684   0.022282
     8  H    0.472456   0.467637  -0.028597  -0.005156  -0.002288   0.004615
     9  C    0.324368  -0.028597   5.191404   0.392491   0.398743   0.389934
    10  H   -0.052648  -0.005156   0.392491   0.492395  -0.017678  -0.023921
    11  H   -0.066684  -0.002288   0.398743  -0.017678   0.482014  -0.022329
    12  H    0.022282   0.004615   0.389934  -0.023921  -0.022329   0.481496
    13  N    0.061468  -0.072709  -0.073439   0.006411   0.023363  -0.026178
    14  H    0.000112   0.007535  -0.006633  -0.000587  -0.000611   0.006004
    15  N   -0.104167   0.008826   0.007094  -0.001821   0.000558   0.005706
    16  H    0.005212  -0.000240  -0.000901   0.000047  -0.000083  -0.000098
    17  H    0.007384   0.000327  -0.003269   0.000027  -0.000108   0.000106
              13         14         15         16         17
     1  C    0.202738  -0.019757  -0.010015  -0.000009  -0.001778
     2  H   -0.053660  -0.004200  -0.001466  -0.000005   0.000126
     3  H   -0.029651  -0.007689   0.006237   0.000123  -0.002016
     4  H   -0.058791   0.006758  -0.000187  -0.000004   0.000153
     5  C   -0.006302  -0.009291   0.280781  -0.025065  -0.013181
     6  O   -0.000044  -0.000843  -0.142995   0.008131   0.003395
     7  C    0.061468   0.000112  -0.104167   0.005212   0.007384
     8  H   -0.072709   0.007535   0.008826  -0.000240   0.000327
     9  C   -0.073439  -0.006633   0.007094  -0.000901  -0.003269
    10  H    0.006411  -0.000587  -0.001821   0.000047   0.000027
    11  H    0.023363  -0.000611   0.000558  -0.000083  -0.000108
    12  H   -0.026178   0.006004   0.005706  -0.000098   0.000106
    13  N    7.041938   0.345402   0.009411  -0.000128   0.008753
    14  H    0.345402   0.430621  -0.004717  -0.000077   0.003580
    15  N    0.009411  -0.004717   6.685617   0.376407   0.353437
    16  H   -0.000128  -0.000077   0.376407   0.345483  -0.016852
    17  H    0.008753   0.003580   0.353437  -0.016852   0.358426
 Mulliken charges:
               1
     1  C   -0.458602
     2  H    0.189379
     3  H    0.166137
     4  H    0.182349
     5  C    0.403585
     6  O   -0.590928
     7  C   -0.173620
     8  H    0.215579
     9  C   -0.527146
    10  H    0.192051
    11  H    0.193000
    12  H    0.191569
    13  N   -0.378582
    14  H    0.254391
    15  N   -0.468706
    16  H    0.308058
    17  H    0.301488
 Sum of Mulliken charges =  -0.00000
 Mulliken charges with hydrogens summed into heavy atoms:
               1
     1  C    0.079263
     5  C    0.403585
     6  O   -0.590928
     7  C    0.041958
     9  C    0.049474
    13  N   -0.124191
    15  N    0.140840
 Electronic spatial extent (au):  <R**2>=            831.8366
 Charge=             -0.0000 electrons
 Dipole moment (field-independent basis, Debye):
    X=             -2.3654    Y=             -0.7747    Z=              4.8013  Tot=              5.4081
 Quadrupole moment (field-independent basis, Debye-Ang):
   XX=            -50.3431   YY=            -42.8128   ZZ=            -41.6342
   XY=              2.5531   XZ=              6.0648   YZ=             -4.3332
 Traceless Quadrupole moment (field-independent basis, Debye-Ang):
   XX=             -5.4131   YY=              2.1172   ZZ=              3.2959
   XY=              2.5531   XZ=              6.0648   YZ=             -4.3332
 Octapole moment (field-independent basis, Debye-Ang**2):
  XXX=             -6.5865  YYY=             -5.1887  ZZZ=             15.8206  XYY=              6.4315
  XXY=             -8.3980  XXZ=             15.4818  XZZ=             -6.4147  YZZ=             -3.5646
  YYZ=              5.0081  XYZ=             -7.3842
 Hexadecapole moment (field-independent basis, Debye-Ang**3):
 XXXX=           -576.1424 YYYY=           -363.1096 ZZZZ=           -165.4404 XXXY=             10.7190
 XXXZ=             21.8770 YYYX=            -12.6956 YYYZ=            -11.8262 ZZZX=              8.8446
 ZZZY=            -13.0249 XXYY=           -148.9931 XXZZ=           -125.9957 YYZZ=            -86.5504
 XXYZ=            -17.1435 YYXZ=              9.8316 ZZXY=             -4.8941
 N-N= 3.237654961136D+02 E-N=-1.447766321023D+03  KE= 3.409263610436D+02
 No NMR shielding tensors so no spin-rotation constants.
 Leave Link  601 at Sun Jun 24 19:29:00 2018, MaxMem= 12079595520 cpu:               1.9 elap:               0.2
 (Enter /opt/qmsoft/g16/g16/l9999.exe)
 1\1\GINC-CU06\Scan\RB3LYP\Gen\C4H10N2O1\ROOT\24-Jun-2018\0\\#p opt=mod
 redundant b3lyp/gen 6d empiricaldispersion=gd3bj scrf\\b3lyp scan\\0,1
 \C,0.9866273428,2.7887551057,-0.1966716222\H,1.2287776108,3.7041470471
 ,-0.7332369752\H,1.9033249334,2.4202439106,0.2816456541\H,0.2750124404
 ,3.0365026989,0.5915597814\C,1.0541487225,-0.3547316015,0.0741344354\O
 ,0.8345392259,-0.9855901365,1.1063012888\C,-0.0168120524,0.5749873315,
 -0.5219520384\H,-0.6619472299,0.8064637187,0.3273901965\C,-0.827619132
 2,-0.2441942552,-1.5340968321\H,-1.7077103932,0.3186564654,-1.83876411
 97\H,-1.1473015594,-1.1914415894,-1.1030522041\H,-0.2308038411,-0.4583
 80826,-2.4218027097\N,0.3698911439,1.8382015431,-1.1152266937\H,0.9174
 335115,1.7183391145,-1.9578990552\N,2.19353487,-0.4912665131,-0.630973
 4887\H,2.9230957199,-1.0946694679,-0.2892448782\H,2.3888590671,0.07305
 0024,-1.4390640091\\Version=ES64L-G16RevA.03\State=1-A\HF=-343.3430885
 ,-343.3448356,-343.3464613,-343.3479647,-343.3493459,-343.3506085,-343
 .3517508,-343.3527765,-343.3536871,-343.3544846,-343.3551713,-343.3557
 494,-343.3562215,-343.3565903,-343.3568584,-343.3570281,-343.357102,-3
 43.3570828,-343.3569732,-343.3567759,-343.3564934\RMSD=3.893e-09,8.155
 e-09,3.812e-09,2.472e-09,7.092e-09,3.612e-09,6.174e-09,5.788e-09,5.359
 e-09,4.939e-09,4.544e-09,4.178e-09,3.864e-09,3.527e-09,3.155e-09,2.812
 e-09,2.555e-09,2.348e-09,2.165e-09,2.040e-09,5.129e-09\PG=C01 [X(C4H10
 N2O1)]\\@


 NO HUMAN INVESTIGATION CAN BECOME REAL SCIENCE
 WITHOUT GOING THROUGH MATHEMATICAL PEOPLE.
 -- LEONARDO DA VINCI, IN "PENSIERI" CA. 1492
 Job cpu time:       0 days  9 hours  8 minutes 48.6 seconds.
 Elapsed time:       0 days  0 hours 46 minutes  1.4 seconds.
 File lengths (MBytes):  RWF=    115 Int=      0 D2E=      0 Chk=     14 Scr=      1
 Normal termination of Gaussian 16 at Sun Jun 24 19:29:01 2018.
